version 3
run Predictive-0-20251030-02:42:05-10680
attr configname Predictive
attr datetime 20251030-02:42:05
attr datetimef 20251030-024205
attr experiment Predictive
attr inifile omnetpp.ini
attr iterationvars ""
attr iterationvarsd ""
attr iterationvarsf ""
attr measurement ""
attr network http_predictive_cache.HttpNetwork
attr processid 10680
attr repetition 0
attr replication #0
attr resultdir results
attr runnumber 0
attr seedset 0
config extends General
config description "Predictive caching with threshold=0.6, TTL=5s"
config *.server.predictionThreshold 0.6
config *.server.cacheTTL 5s
config *.server.maxCacheSize 20
config network http_predictive_cache.HttpNetwork
config sim-time-limit 600s
config repeat 3
config *.numClients 10
config *.server.predictionThreshold 0.6
config *.server.cacheTTL 5s
config *.server.maxCacheSize 20

vector 0 HttpNetwork.server requestsReceived:vector ETV
attr recordingmode vector
attr source requestReceived
attr title "Requests Received"
vector 1 HttpNetwork.server responsesGenerated:vector ETV
attr recordingmode vector
attr source responseGenerated
attr title "Responses Generated"
vector 2 HttpNetwork.server processingDelay:vector ETV
attr recordingmode vector
attr source processingTime
attr title "Processing Delay"
attr unit s
vector 3 HttpNetwork.server patternsLearned:vector ETV
attr recordingmode vector
attr source patternLearned
attr title "Navigation Patterns Learned"
vector 4 HttpNetwork.server cacheHits:vector ETV
attr recordingmode vector
attr source cacheHit
attr title "Cache Hits"
vector 5 HttpNetwork.server cacheMisses:vector ETV
attr recordingmode vector
attr source cacheMiss
attr title "Cache Misses"
vector 6 HttpNetwork.server predictiveCaching:vector ETV
attr recordingmode vector
attr source cachePreGenerated
attr title "Pages Pre-cached"
vector 7 HttpNetwork.server cacheExpired:vector ETV
attr recordingmode vector
attr source cacheExpired
attr title "Cache Entries Expired"
vector 8 HttpNetwork.server cacheEvicted:vector ETV
attr recordingmode vector
attr source cacheEvicted
attr title "Cache Entries Evicted"
vector 9 HttpNetwork.server cacheSize:vector ETV
attr recordingmode vector
attr source cacheSize
attr title "Current Cache Size"
vector 10 HttpNetwork.server responseTimeStats:vector ETV
attr recordingmode vector
attr source responseTime
attr title "Response Time per Request"
attr unit s
vector 11 HttpNetwork.server cacheHitRateStats:vector ETV
attr recordingmode vector
attr source cacheHitRate
attr title "Cache Hit Rate"
attr unit %
vector 12 HttpNetwork.server timeSavingsStats:vector ETV
attr recordingmode vector
attr source timeSavings
attr title "Time Savings from Cache"
attr unit s
vector 13 HttpNetwork.server requestsCompleted:vector ETV
attr recordingmode vector
attr source requestComplete
attr title "Completed Requests"
vector 14 HttpNetwork.client[0] requestsSent:vector ETV
attr recordingmode vector
attr source requestSent
attr title "Requests Sent"
vector 15 HttpNetwork.client[0] responsesReceived:vector ETV
attr recordingmode vector
attr source responseReceived
attr title "Responses Received"
vector 16 HttpNetwork.client[0] responseTime:vector ETV
attr recordingmode vector
attr source responseTime
attr title "Response Time"
attr unit s
vector 17 HttpNetwork.client[0] patternUsage:vector ETV
attr recordingmode vector
attr source patternFollowed
attr title "Pattern Followed"
vector 18 HttpNetwork.client[0] randomSelections:vector ETV
attr recordingmode vector
attr source randomChoice
attr title "Random Selections"
vector 19 HttpNetwork.client[1] requestsSent:vector ETV
attr recordingmode vector
attr source requestSent
attr title "Requests Sent"
vector 20 HttpNetwork.client[1] responsesReceived:vector ETV
attr recordingmode vector
attr source responseReceived
attr title "Responses Received"
vector 21 HttpNetwork.client[1] responseTime:vector ETV
attr recordingmode vector
attr source responseTime
attr title "Response Time"
attr unit s
vector 22 HttpNetwork.client[1] patternUsage:vector ETV
attr recordingmode vector
attr source patternFollowed
attr title "Pattern Followed"
vector 23 HttpNetwork.client[1] randomSelections:vector ETV
attr recordingmode vector
attr source randomChoice
attr title "Random Selections"
vector 24 HttpNetwork.client[2] requestsSent:vector ETV
attr recordingmode vector
attr source requestSent
attr title "Requests Sent"
vector 25 HttpNetwork.client[2] responsesReceived:vector ETV
attr recordingmode vector
attr source responseReceived
attr title "Responses Received"
vector 26 HttpNetwork.client[2] responseTime:vector ETV
attr recordingmode vector
attr source responseTime
attr title "Response Time"
attr unit s
vector 27 HttpNetwork.client[2] patternUsage:vector ETV
attr recordingmode vector
attr source patternFollowed
attr title "Pattern Followed"
vector 28 HttpNetwork.client[2] randomSelections:vector ETV
attr recordingmode vector
attr source randomChoice
attr title "Random Selections"
vector 29 HttpNetwork.client[3] requestsSent:vector ETV
attr recordingmode vector
attr source requestSent
attr title "Requests Sent"
vector 30 HttpNetwork.client[3] responsesReceived:vector ETV
attr recordingmode vector
attr source responseReceived
attr title "Responses Received"
vector 31 HttpNetwork.client[3] responseTime:vector ETV
attr recordingmode vector
attr source responseTime
attr title "Response Time"
attr unit s
vector 32 HttpNetwork.client[3] patternUsage:vector ETV
attr recordingmode vector
attr source patternFollowed
attr title "Pattern Followed"
vector 33 HttpNetwork.client[3] randomSelections:vector ETV
attr recordingmode vector
attr source randomChoice
attr title "Random Selections"
vector 34 HttpNetwork.client[4] requestsSent:vector ETV
attr recordingmode vector
attr source requestSent
attr title "Requests Sent"
vector 35 HttpNetwork.client[4] responsesReceived:vector ETV
attr recordingmode vector
attr source responseReceived
attr title "Responses Received"
vector 36 HttpNetwork.client[4] responseTime:vector ETV
attr recordingmode vector
attr source responseTime
attr title "Response Time"
attr unit s
vector 37 HttpNetwork.client[4] patternUsage:vector ETV
attr recordingmode vector
attr source patternFollowed
attr title "Pattern Followed"
vector 38 HttpNetwork.client[4] randomSelections:vector ETV
attr recordingmode vector
attr source randomChoice
attr title "Random Selections"
vector 39 HttpNetwork.client[5] requestsSent:vector ETV
attr recordingmode vector
attr source requestSent
attr title "Requests Sent"
vector 40 HttpNetwork.client[5] responsesReceived:vector ETV
attr recordingmode vector
attr source responseReceived
attr title "Responses Received"
vector 41 HttpNetwork.client[5] responseTime:vector ETV
attr recordingmode vector
attr source responseTime
attr title "Response Time"
attr unit s
vector 42 HttpNetwork.client[5] patternUsage:vector ETV
attr recordingmode vector
attr source patternFollowed
attr title "Pattern Followed"
vector 43 HttpNetwork.client[5] randomSelections:vector ETV
attr recordingmode vector
attr source randomChoice
attr title "Random Selections"
vector 44 HttpNetwork.client[6] requestsSent:vector ETV
attr recordingmode vector
attr source requestSent
attr title "Requests Sent"
vector 45 HttpNetwork.client[6] responsesReceived:vector ETV
attr recordingmode vector
attr source responseReceived
attr title "Responses Received"
vector 46 HttpNetwork.client[6] responseTime:vector ETV
attr recordingmode vector
attr source responseTime
attr title "Response Time"
attr unit s
vector 47 HttpNetwork.client[6] patternUsage:vector ETV
attr recordingmode vector
attr source patternFollowed
attr title "Pattern Followed"
vector 48 HttpNetwork.client[6] randomSelections:vector ETV
attr recordingmode vector
attr source randomChoice
attr title "Random Selections"
vector 49 HttpNetwork.client[7] requestsSent:vector ETV
attr recordingmode vector
attr source requestSent
attr title "Requests Sent"
vector 50 HttpNetwork.client[7] responsesReceived:vector ETV
attr recordingmode vector
attr source responseReceived
attr title "Responses Received"
vector 51 HttpNetwork.client[7] responseTime:vector ETV
attr recordingmode vector
attr source responseTime
attr title "Response Time"
attr unit s
vector 52 HttpNetwork.client[7] patternUsage:vector ETV
attr recordingmode vector
attr source patternFollowed
attr title "Pattern Followed"
vector 53 HttpNetwork.client[7] randomSelections:vector ETV
attr recordingmode vector
attr source randomChoice
attr title "Random Selections"
vector 54 HttpNetwork.client[8] requestsSent:vector ETV
attr recordingmode vector
attr source requestSent
attr title "Requests Sent"
vector 55 HttpNetwork.client[8] responsesReceived:vector ETV
attr recordingmode vector
attr source responseReceived
attr title "Responses Received"
vector 56 HttpNetwork.client[8] responseTime:vector ETV
attr recordingmode vector
attr source responseTime
attr title "Response Time"
attr unit s
vector 57 HttpNetwork.client[8] patternUsage:vector ETV
attr recordingmode vector
attr source patternFollowed
attr title "Pattern Followed"
vector 58 HttpNetwork.client[8] randomSelections:vector ETV
attr recordingmode vector
attr source randomChoice
attr title "Random Selections"
vector 59 HttpNetwork.client[9] requestsSent:vector ETV
attr recordingmode vector
attr source requestSent
attr title "Requests Sent"
vector 60 HttpNetwork.client[9] responsesReceived:vector ETV
attr recordingmode vector
attr source responseReceived
attr title "Responses Received"
vector 61 HttpNetwork.client[9] responseTime:vector ETV
attr recordingmode vector
attr source responseTime
attr title "Response Time"
attr unit s
vector 62 HttpNetwork.client[9] patternUsage:vector ETV
attr recordingmode vector
attr source patternFollowed
attr title "Pattern Followed"
vector 63 HttpNetwork.client[9] randomSelections:vector ETV
attr recordingmode vector
attr source randomChoice
attr title "Random Selections"
49	1	0.253376608528	1
53	1	0.253376608528	1
34	2	0.253752683289	1
37	2	0.253752683289	1
0	3	0.263376608528	1
2	3	0.263376608528	0.12621014841834
5	3	0.263376608528	1
11	3	0.263376608528	0
0	4	0.263752683289	2
2	4	0.263752683289	0.17587847117368
5	4	0.263752683289	1
11	4	0.263752683289	0
59	5	0.311557968613	1
62	5	0.311557968613	1
0	6	0.321557968613	3
2	6	0.321557968613	0.13315081571705
5	6	0.321557968613	1
11	6	0.321557968613	0
29	7	0.349425478559	1
32	7	0.349425478559	1
0	8	0.359425478559	4
2	8	0.359425478559	0.17854539508133
5	8	0.359425478559	1
11	8	0.359425478559	0
14	9	0.386075745989	1
17	9	0.386075745989	1
1	10	0.389586756946	1
10	10	0.389586756946	0.030161278387
13	10	0.389586756946	1
0	11	0.396075745989	5
2	11	0.396075745989	0.17992327632957
5	11	0.396075745989	1
11	11	0.396075745989	0
50	12	0.399586756946	1
51	12	0.399586756946	0.146210148418
54	13	0.416690013371	1
57	13	0.416690013371	1
0	14	0.426690013371	6
2	14	0.426690013371	0.11435132817373
5	14	0.426690013371	1
11	14	0.426690013371	0
24	15	0.438900694903	1
27	15	0.438900694903	1
1	16	0.439631154463	2
10	16	0.439631154463	0.012941141092
13	16	0.439631154463	1
19	17	0.44317824794	1
22	17	0.44317824794	1
0	18	0.448900694903	7
2	18	0.448900694903	0.17500017381987
5	18	0.448900694903	1
11	18	0.448900694903	0
35	19	0.449631154463	1
36	19	0.449631154463	0.195878471174
0	20	0.45317824794	8
2	20	0.45317824794	0.16002308573863
5	20	0.45317824794	1
11	20	0.45317824794	0
1	21	0.45470878433	3
10	21	0.45470878433	0.00153053639
13	21	0.45470878433	1
39	22	0.456709200703	1
42	22	0.456709200703	1
60	23	0.46470878433	1
61	23	0.46470878433	0.153150815717
0	24	0.466709200703	9
2	24	0.466709200703	0.11831571015713
5	24	0.466709200703	1
11	24	0.466709200703	0
44	25	0.485465105623	1
47	25	0.485465105623	1
0	26	0.495465105623	10
2	26	0.495465105623	0.10618140259517
5	26	0.495465105623	1
11	26	0.495465105623	0
1	27	0.53797087364	4
10	27	0.53797087364	0.042505768017
13	27	0.53797087364	1
1	28	0.541041341545	5
30	29	0.54797087364	1
31	29	0.54797087364	0.198545395081
55	30	0.551041341545	1
56	30	0.551041341545	0.134351328174
1	31	0.575999022319	6
1	32	0.58502491086	7
15	33	0.585999022319	1
16	33	0.585999022319	0.19992327633
40	34	0.59502491086	1
41	34	0.59502491086	0.138315710157
1	35	0.601646508218	8
45	36	0.611646508218	1
46	36	0.611646508218	0.126181402595
1	37	0.613201333679	9
20	38	0.623201333679	1
21	38	0.623201333679	0.180023085739
1	39	0.623900868723	10
25	40	0.633900868723	1
26	40	0.633900868723	0.19500017382
39	41	1.721302882091	2
42	41	1.721302882091	1
0	42	1.731302882091	11
2	42	1.731302882091	0.1827511380262
5	42	1.731302882091	1
11	42	1.731302882091	0
29	43	1.822588179284	2
32	43	1.822588179284	1
0	44	1.832588179284	12
2	44	1.832588179284	0.17648358384485
5	44	1.832588179284	1
11	44	1.832588179284	0
49	45	1.876267277604	2
53	45	1.876267277604	1
0	46	1.886267277604	13
2	46	1.886267277604	0.17922124048128
5	46	1.886267277604	1
11	46	1.886267277604	0
14	47	1.907906265791	2
18	47	1.907906265791	1
1	48	1.914054020117	11
3	48	1.914054020117	1
10	48	1.914054020117	0.027786742513
13	48	1.914054020117	1
0	49	1.917906265791	14
2	49	1.917906265791	0.16546624865052
5	49	1.917906265791	1
11	49	1.917906265791	0
40	50	1.924054020117	2
41	50	1.924054020117	0.202751138026
1	51	2.009071763129	12
3	51	2.009071763129	2
10	51	2.009071763129	0.091165497338
13	51	2.009071763129	1
30	52	2.019071763129	2
31	52	2.019071763129	0.196483583845
1	53	2.065488518085	13
3	53	2.065488518085	1
50	54	2.075488518085	2
51	54	2.075488518085	0.199221240481
1	55	2.083372514442	14
3	55	2.083372514442	1
15	56	2.093372514442	2
16	56	2.093372514442	0.185466248651
34	57	2.108063675108	2
38	57	2.108063675108	1
0	58	2.118063675108	15
2	58	2.118063675108	0.18996388840818
5	58	2.118063675108	1
11	58	2.118063675108	0
24	59	2.224993394675	2
27	59	2.224993394675	1
0	60	2.234993394675	16
2	60	2.234993394675	0.12237012439734
5	60	2.234993394675	1
11	60	2.234993394675	0
54	61	2.236032318849	2
57	61	2.236032318849	1
0	62	2.246032318849	17
2	62	2.246032318849	0.11967114288539
5	62	2.246032318849	1
11	62	2.246032318849	0
1	63	2.308027563516	15
3	63	2.308027563516	1
10	63	2.308027563516	0.061995244667
13	63	2.308027563516	1
35	64	2.318027563516	2
36	64	2.318027563516	0.209963888408
19	65	2.321765731543	2
22	65	2.321765731543	1
0	66	2.331765731543	18
2	66	2.331765731543	0.11903741275892
5	66	2.331765731543	1
11	66	2.331765731543	0
1	67	2.357363519072	16
3	67	2.357363519072	3
10	67	2.357363519072	0.025597787529
13	67	2.357363519072	1
1	68	2.365703461734	17
3	68	2.365703461734	4
25	69	2.367363519072	2
26	69	2.367363519072	0.142370124397
55	70	2.375703461734	2
56	70	2.375703461734	0.139671142885
44	71	2.434663055796	2
47	71	2.434663055796	1
59	72	2.435236371126	2
62	72	2.435236371126	1
0	73	2.444663055796	19
2	73	2.444663055796	0.16207658429994
5	73	2.444663055796	1
11	73	2.444663055796	0
0	74	2.445236371126	20
2	74	2.445236371126	0.15501284135662
5	74	2.445236371126	1
11	74	2.445236371126	0
1	75	2.450803144302	18
3	75	2.450803144302	5
10	75	2.450803144302	0.005566773176
13	75	2.450803144302	1
20	76	2.460803144302	2
21	76	2.460803144302	0.139037412759
1	77	2.600249212483	19
3	77	2.600249212483	6
1	78	2.606739640096	20
3	78	2.606739640096	7
60	79	2.610249212483	2
61	79	2.610249212483	0.175012841357
45	80	2.616739640096	2
46	80	2.616739640096	0.1820765843
49	81	3.164744365122	3
53	81	3.164744365122	1
0	82	3.174744365122	21
2	82	3.174744365122	0.11726527014886
5	82	3.174744365122	1
11	82	3.174744365122	0
1	83	3.292009635271	21
3	83	3.292009635271	1
6	83	3.292009635271	1
9	83	3.292009635271	1
10	83	3.292009635271	0.117265270149
13	83	3.292009635271	1
50	84	3.302009635271	3
51	84	3.302009635271	0.137265270149
14	85	3.309676083156	3
17	85	3.309676083156	1
0	86	3.319676083156	22
2	86	3.319676083156	0.015571338557397
4	86	3.319676083156	1
11	86	3.319676083156	4.5454545454545
12	86	3.319676083156	0.1344286614426
1	87	3.335247421713	22
3	87	3.335247421713	1
10	87	3.335247421713	0.015571338557
13	87	3.335247421713	1
15	88	3.345247421713	3
16	88	3.345247421713	0.035571338557
29	89	3.585964104595	3
32	89	3.585964104595	1
0	90	3.595964104595	23
2	90	3.595964104595	0.17123924572419
5	90	3.595964104595	1
11	90	3.595964104595	4.3478260869565
39	91	3.688138824857	3
42	91	3.688138824857	1
0	92	3.698138824857	24
2	92	3.698138824857	0.11319944020652
5	92	3.698138824857	1
11	92	3.698138824857	4.1666666666667
1	93	3.767203350319	23
3	93	3.767203350319	1
10	93	3.767203350319	0.069064525462
13	93	3.767203350319	1
30	94	3.777203350319	3
31	94	3.777203350319	0.191239245724
1	95	3.811338265064	24
3	95	3.811338265064	2
40	96	3.821338265064	3
41	96	3.821338265064	0.133199440207
34	97	3.834777323741	3
37	97	3.834777323741	1
0	98	3.844777323741	25
2	98	3.844777323741	0.013896307786731
4	98	3.844777323741	1
11	98	3.844777323741	8
12	98	3.844777323741	0.13610369221327
1	99	3.858673631528	25
3	99	3.858673631528	1
6	99	3.858673631528	1
9	99	3.858673631528	2
10	99	3.858673631528	0.013896307787
13	99	3.858673631528	1
35	100	3.868673631528	3
36	100	3.868673631528	0.033896307787
59	101	3.972417033755	3
62	101	3.972417033755	1
0	102	3.982417033755	26
2	102	3.982417033755	0.011953437019888
4	102	3.982417033755	1
11	102	3.982417033755	11.538461538462
12	102	3.982417033755	0.13804656298011
1	103	3.994370470775	26
3	103	3.994370470775	3
10	103	3.994370470775	0.01195343702
13	103	3.994370470775	1
60	104	4.004370470775	3
61	104	4.004370470775	0.03195343702
44	105	4.029725291115	3
47	105	4.029725291115	1
0	106	4.039725291115	27
2	106	4.039725291115	0.015407544011679
4	106	4.039725291115	1
11	106	4.039725291115	14.814814814815
12	106	4.039725291115	0.13459245598832
1	107	4.055132835127	27
3	107	4.055132835127	4
10	107	4.055132835127	0.015407544012
13	107	4.055132835127	1
45	108	4.065132835127	3
46	108	4.065132835127	0.035407544012
54	109	4.288696227018	3
58	109	4.288696227018	1
0	110	4.298696227018	28
2	110	4.298696227018	0.1048463392069
5	110	4.298696227018	1
11	110	4.298696227018	14.285714285714
24	111	4.342658712841	3
27	111	4.342658712841	1
0	112	4.352658712841	29
2	112	4.352658712841	0.012731724144953
4	112	4.352658712841	1
11	112	4.352658712841	17.241379310345
12	112	4.352658712841	0.13726827585505
1	113	4.365390436986	28
3	113	4.365390436986	5
10	113	4.365390436986	0.012731724145
13	113	4.365390436986	1
25	114	4.375390436986	3
26	114	4.375390436986	0.032731724145
1	115	4.403542566225	29
3	115	4.403542566225	1
6	115	4.403542566225	1
9	115	4.403542566225	3
55	116	4.413542566225	3
56	116	4.413542566225	0.124846339207
19	117	4.44031188609	3
22	117	4.44031188609	1
0	118	4.45031188609	30
2	118	4.45031188609	0.017099111325627
4	118	4.45031188609	1
11	118	4.45031188609	20
12	118	4.45031188609	0.13290088867437
1	119	4.467410997416	30
3	119	4.467410997416	6
10	119	4.467410997416	0.017099111326
13	119	4.467410997416	1
20	120	4.477410997416	3
21	120	4.477410997416	0.037099111326
14	121	4.777314171963	4
17	121	4.777314171963	1
0	122	4.787314171963	31
2	122	4.787314171963	0.016992403746807
4	122	4.787314171963	1
11	122	4.787314171963	22.58064516129
12	122	4.787314171963	0.13300759625319
1	123	4.80430657571	31
3	123	4.80430657571	7
10	123	4.80430657571	0.016992403747
13	123	4.80430657571	1
15	124	4.81430657571	4
16	124	4.81430657571	0.036992403747
49	125	4.85286815931	4
52	125	4.85286815931	1
0	126	4.86286815931	32
2	126	4.86286815931	0.014204670956664
4	126	4.86286815931	1
11	126	4.86286815931	25
12	126	4.86286815931	0.13579532904334
1	127	4.877072830267	32
10	127	4.877072830267	0.014204670957
13	127	4.877072830267	1
50	128	4.887072830267	4
51	128	4.887072830267	0.034204670957
34	129	5.038244220973	4
38	129	5.038244220973	1
0	130	5.048244220973	33
2	130	5.048244220973	0.10907557682314
5	130	5.048244220973	1
11	130	5.048244220973	24.242424242424
1	131	5.157319797796	33
3	131	5.157319797796	2
10	131	5.157319797796	0.109075576823
13	131	5.157319797796	1
35	132	5.167319797796	4
36	132	5.167319797796	0.129075576823
29	133	5.292963194139	4
32	133	5.292963194139	1
0	134	5.302963194139	34
2	134	5.302963194139	0.019097068788761
4	134	5.302963194139	1
11	134	5.302963194139	26.470588235294
12	134	5.302963194139	0.13090293121124
1	135	5.322060262928	34
3	135	5.322060262928	1
10	135	5.322060262928	0.019097068789
13	135	5.322060262928	1
30	136	5.332060262928	4
31	136	5.332060262928	0.039097068789
54	137	5.671565480141	4
58	137	5.671565480141	1
0	138	5.681565480141	35
2	138	5.681565480141	0.14832528792483
5	138	5.681565480141	1
11	138	5.681565480141	25.714285714286
24	139	5.717043679321	4
27	139	5.717043679321	1
0	140	5.727043679321	36
2	140	5.727043679321	0.011539439279842
4	140	5.727043679321	1
11	140	5.727043679321	27.777777777778
12	140	5.727043679321	0.13846056072016
1	141	5.738583118601	35
3	141	5.738583118601	2
10	141	5.738583118601	0.01153943928
13	141	5.738583118601	1
25	142	5.748583118601	4
26	142	5.748583118601	0.03153943928
19	143	5.753657347638	4
22	143	5.753657347638	1
0	144	5.763657347638	37
2	144	5.763657347638	0.014108132410495
4	144	5.763657347638	1
11	144	5.763657347638	29.72972972973
12	144	5.763657347638	0.13589186758951
39	145	5.769232016036	4
42	145	5.769232016036	1
1	146	5.777765480048	36
3	146	5.777765480048	3
10	146	5.777765480048	0.01410813241
13	146	5.777765480048	1
0	147	5.779232016036	38
2	147	5.779232016036	0.019819358607267
4	147	5.779232016036	1
11	147	5.779232016036	31.578947368421
12	147	5.779232016036	0.13018064139273
20	148	5.787765480048	4
21	148	5.787765480048	0.03410813241
1	149	5.799051374643	37
3	149	5.799051374643	4
10	149	5.799051374643	0.019819358607
13	149	5.799051374643	1
40	150	5.809051374643	4
41	150	5.809051374643	0.039819358607
1	151	5.829890768066	38
3	151	5.829890768066	1
55	152	5.839890768066	4
56	152	5.839890768066	0.168325287925
59	153	5.921708844829	4
62	153	5.921708844829	1
0	154	5.931708844829	39
2	154	5.931708844829	0.011417940807181
4	154	5.931708844829	1
11	154	5.931708844829	33.333333333333
12	154	5.931708844829	0.13858205919282
1	155	5.943126785636	39
3	155	5.943126785636	5
10	155	5.943126785636	0.011417940807
13	155	5.943126785636	1
60	156	5.953126785636	4
61	156	5.953126785636	0.031417940807
44	157	5.994536588563	4
47	157	5.994536588563	1
14	158	5.995082462108	5
17	158	5.995082462108	1
0	159	6.004536588563	40
2	159	6.004536588563	0.010006241635169
4	159	6.004536588563	1
11	159	6.004536588563	35
12	159	6.004536588563	0.13999375836483
0	160	6.005082462108	41
2	160	6.005082462108	0.013476637185872
4	160	6.005082462108	1
11	160	6.005082462108	36.585365853659
12	160	6.005082462108	0.13652336281413
1	161	6.014542830198	40
3	161	6.014542830198	6
10	161	6.014542830198	0.010006241635
13	161	6.014542830198	1
1	162	6.018559099294	41
3	162	6.018559099294	7
10	162	6.018559099294	0.013476637186
13	162	6.018559099294	1
45	163	6.024542830198	4
46	163	6.024542830198	0.030006241635
15	164	6.028559099294	5
16	164	6.028559099294	0.033476637186
34	165	6.281103965898	5
37	165	6.281103965898	1
0	166	6.291103965898	42
2	166	6.291103965898	0.01354770547762
4	166	6.291103965898	1
11	166	6.291103965898	38.095238095238
12	166	6.291103965898	0.13645229452238
1	167	6.304651671376	42
3	167	6.304651671376	1
10	167	6.304651671376	0.013547705478
13	167	6.304651671376	1
49	168	6.311176518905	5
53	168	6.311176518905	1
35	169	6.314651671376	5
36	169	6.314651671376	0.033547705478
0	170	6.321176518905	43
2	170	6.321176518905	0.011806527427394
4	170	6.321176518905	1
11	170	6.321176518905	39.53488372093
12	170	6.321176518905	0.13819347257261
1	171	6.332983046332	43
3	171	6.332983046332	2
10	171	6.332983046332	0.011806527427
13	171	6.332983046332	1
50	172	6.342983046332	5
51	172	6.342983046332	0.031806527427
24	173	6.809124683737	5
27	173	6.809124683737	1
0	174	6.819124683737	44
2	174	6.819124683737	0.019940325113334
4	174	6.819124683737	1
11	174	6.819124683737	40.909090909091
12	174	6.819124683737	0.13005967488667
1	175	6.83906500885	44
3	175	6.83906500885	8
10	175	6.83906500885	0.019940325113
13	175	6.83906500885	1
25	176	6.84906500885	5
26	176	6.84906500885	0.039940325113
29	177	7.10607268462	5
32	177	7.10607268462	1
0	178	7.11607268462	45
2	178	7.11607268462	0.019149407156072
4	178	7.11607268462	1
11	178	7.11607268462	42.222222222222
12	178	7.11607268462	0.13085059284393
1	179	7.135222091776	45
3	179	7.135222091776	9
10	179	7.135222091776	0.019149407156
13	179	7.135222091776	1
30	180	7.145222091776	5
31	180	7.145222091776	0.039149407156
59	181	7.170420376933	5
62	181	7.170420376933	1
0	182	7.180420376933	46
2	182	7.180420376933	0.012345185125496
4	182	7.180420376933	1
11	182	7.180420376933	43.478260869565
12	182	7.180420376933	0.1376548148745
19	183	7.187659221089	5
23	183	7.187659221089	1
1	184	7.192765562058	46
3	184	7.192765562058	10
10	184	7.192765562058	0.012345185125
13	184	7.192765562058	1
0	185	7.197659221089	47
2	185	7.197659221089	0.1267976016322
5	185	7.197659221089	1
11	185	7.197659221089	42.553191489362
60	186	7.202765562058	5
61	186	7.202765562058	0.032345185125
39	187	7.299151031488	5
42	187	7.299151031488	1
0	188	7.309151031488	48
2	188	7.309151031488	0.018356344388497
4	188	7.309151031488	1
11	188	7.309151031488	43.75
12	188	7.309151031488	0.1316436556115
1	189	7.324456822721	47
3	189	7.324456822721	2
10	189	7.324456822721	0.015305791233
13	189	7.324456822721	1
1	190	7.327507375876	48
3	190	7.327507375876	11
44	191	7.328919705546	5
47	191	7.328919705546	1
20	192	7.334456822721	5
21	192	7.334456822721	0.146797601632
40	193	7.337507375876	5
41	193	7.337507375876	0.038356344388
0	194	7.338919705546	49
2	194	7.338919705546	0.018281581618291
4	194	7.338919705546	1
11	194	7.338919705546	44.897959183673
12	194	7.338919705546	0.13171841838171
0	198	7.591489599908	50
0	202	7.693838712082	51
0	206	7.782843817091	52
0	210	8.062959431452	53
0	214	8.171762402593	54
0	216	8.23020043499	55
0	223	8.698818597975	56
0	225	8.753530179308	57
0	229	8.785228568105	58
0	236	8.99025922988	59
0	240	9.070263166778	60
0	242	9.143682038269	61
0	247	9.265726908444	62
0	252	9.343759225558	63
0	257	9.518123715889	64
0	262	10.03777028172	65
0	266	10.069158140219	66
1	195	7.357201287164	49
1	199	7.606087340694	50
1	203	7.711853613102	51
1	207	7.793354265612	52
1	211	8.079802790766	53
1	217	8.241004408359	54
1	219	8.283922853873	55
1	226	8.765877386431	56
1	230	8.798033922181	57
1	232	8.846321064214	58
1	237	9.006479572002	59
1	243	9.20569563725	60
1	246	9.256954898218	61
1	249	9.277530014957	62
1	253	9.355717973866	63
1	258	9.69001713134	64
1	263	10.054076426566	65
1	267	10.08010544863	66
2	198	7.591489599908	0.014597740785596
2	202	7.693838712082	0.018014901019904
2	206	7.782843817091	0.010510448521461
2	210	8.062959431452	0.016843359313792
2	214	8.171762402593	0.11216045127994
2	216	8.23020043499	0.010803973368652
2	223	8.698818597975	0.14750246623936
2	225	8.753530179308	0.01234720712284
2	229	8.785228568105	0.012805354076166
2	236	8.99025922988	0.016220342122073
2	240	9.070263166778	0.13543247047228
2	242	9.143682038269	0.11327285994919
2	247	9.265726908444	0.011803106512868
2	252	9.343759225558	0.011958748308392
2	257	9.518123715889	0.17189341545112
2	262	10.03777028172	0.016306144846449
2	266	10.069158140219	0.010947308410635
3	195	7.357201287164	12
3	199	7.606087340694	13
3	203	7.711853613102	2
3	207	7.793354265612	1
3	211	8.079802790766	3
3	217	8.241004408359	8
3	219	8.283922853873	1
3	226	8.765877386431	9
3	230	8.798033922181	10
3	232	8.846321064214	3
3	237	9.006479572002	8
3	243	9.20569563725	11
3	246	9.256954898218	12
3	249	9.277530014957	1
3	253	9.355717973866	1
3	258	9.69001713134	9
3	263	10.054076426566	2
3	267	10.08010544863	10
4	198	7.591489599908	1
4	202	7.693838712082	1
4	206	7.782843817091	1
4	210	8.062959431452	1
4	216	8.23020043499	1
4	225	8.753530179308	1
4	229	8.785228568105	1
4	236	8.99025922988	1
4	247	9.265726908444	1
4	252	9.343759225558	1
4	262	10.03777028172	1
4	266	10.069158140219	1
5	214	8.171762402593	1
5	223	8.698818597975	1
5	240	9.070263166778	1
5	242	9.143682038269	1
5	257	9.518123715889	1
6	237	9.006479572002	1
6	253	9.355717973866	1
6	263	10.054076426566	1
7	220	8.292009635271	1
7	234	8.858673631528	1
7	255	9.403542566225	1
9	220	8.292009635271	2
9	234	8.858673631528	1
9	237	9.006479572002	2
9	253	9.355717973866	3
9	255	9.403542566225	2
9	263	10.054076426566	3
10	195	7.357201287164	0.018281581618
10	199	7.606087340694	0.014597740786
10	203	7.711853613102	0.01801490102
10	207	7.793354265612	0.010510448521
10	211	8.079802790766	0.016843359314
10	217	8.241004408359	0.010803973369
10	226	8.765877386431	0.012347207123
10	230	8.798033922181	0.012805354076
10	237	9.006479572002	0.016220342122
10	243	9.20569563725	0.062013598981
10	249	9.277530014957	0.011803106513
10	253	9.355717973866	0.011958748308
10	258	9.69001713134	0.171893415451
10	263	10.054076426566	0.016306144846
10	267	10.08010544863	0.010947308411
11	198	7.591489599908	46
11	202	7.693838712082	47.058823529412
11	206	7.782843817091	48.076923076923
11	210	8.062959431452	49.056603773585
11	214	8.171762402593	48.148148148148
11	216	8.23020043499	49.090909090909
11	223	8.698818597975	48.214285714286
11	225	8.753530179308	49.122807017544
11	229	8.785228568105	50
11	236	8.99025922988	50.847457627119
11	240	9.070263166778	50
11	242	9.143682038269	49.180327868852
11	247	9.265726908444	50
11	252	9.343759225558	50.793650793651
11	257	9.518123715889	50
11	262	10.03777028172	50.769230769231
11	266	10.069158140219	51.515151515152
12	198	7.591489599908	0.1354022592144
12	202	7.693838712082	0.1319850989801
12	206	7.782843817091	0.13948955147854
12	210	8.062959431452	0.13315664068621
12	216	8.23020043499	0.13919602663135
12	225	8.753530179308	0.13765279287716
12	229	8.785228568105	0.13719464592383
12	236	8.99025922988	0.13377965787793
12	247	9.265726908444	0.13819689348713
12	252	9.343759225558	0.13804125169161
12	262	10.03777028172	0.13369385515355
12	266	10.069158140219	0.13905269158937
13	195	7.357201287164	1
13	199	7.606087340694	1
13	203	7.711853613102	1
13	207	7.793354265612	1
13	211	8.079802790766	1
13	217	8.241004408359	1
13	226	8.765877386431	1
13	230	8.798033922181	1
13	237	9.006479572002	1
13	243	9.20569563725	1
13	249	9.277530014957	1
13	253	9.355717973866	1