file 56143 1761770931                                           
version 3
run Predictive-0-20251030-02:42:05-10680
attr configname Predictive
attr datetime 20251030-02:42:05
attr datetimef 20251030-024205
attr experiment Predictive
attr inifile omnetpp.ini
attr iterationvars ""
attr iterationvarsd ""
attr iterationvarsf ""
attr measurement ""
attr network http_predictive_cache.HttpNetwork
attr processid 10680
attr repetition 0
attr replication #0
attr resultdir results
attr runnumber 0
attr seedset 0
config extends General
config description "Predictive caching with threshold=0.6, TTL=5s"
config *.server.predictionThreshold 0.6
config *.server.cacheTTL 5s
config *.server.maxCacheSize 20
config network http_predictive_cache.HttpNetwork
config sim-time-limit 600s
config repeat 3
config *.numClients 10
config *.server.predictionThreshold 0.6
config *.server.cacheTTL 5s
config *.server.maxCacheSize 20

vector 0 HttpNetwork.server requestsReceived:vector ETV
attr recordingmode vector
attr source requestReceived
attr title "Requests Received"
vector 1 HttpNetwork.server responsesGenerated:vector ETV
attr recordingmode vector
attr source responseGenerated
attr title "Responses Generated"
vector 2 HttpNetwork.server processingDelay:vector ETV
attr recordingmode vector
attr source processingTime
attr title "Processing Delay"
attr unit s
vector 3 HttpNetwork.server patternsLearned:vector ETV
attr recordingmode vector
attr source patternLearned
attr title "Navigation Patterns Learned"
vector 4 HttpNetwork.server cacheHits:vector ETV
attr recordingmode vector
attr source cacheHit
attr title "Cache Hits"
vector 5 HttpNetwork.server cacheMisses:vector ETV
attr recordingmode vector
attr source cacheMiss
attr title "Cache Misses"
vector 6 HttpNetwork.server predictiveCaching:vector ETV
attr recordingmode vector
attr source cachePreGenerated
attr title "Pages Pre-cached"
vector 7 HttpNetwork.server cacheExpired:vector ETV
attr recordingmode vector
attr source cacheExpired
attr title "Cache Entries Expired"
vector 8 HttpNetwork.server cacheEvicted:vector ETV
attr recordingmode vector
attr source cacheEvicted
attr title "Cache Entries Evicted"
vector 9 HttpNetwork.server cacheSize:vector ETV
attr recordingmode vector
attr source cacheSize
attr title "Current Cache Size"
vector 10 HttpNetwork.server responseTimeStats:vector ETV
attr recordingmode vector
attr source responseTime
attr title "Response Time per Request"
attr unit s
vector 11 HttpNetwork.server cacheHitRateStats:vector ETV
attr recordingmode vector
attr source cacheHitRate
attr title "Cache Hit Rate"
attr unit %
vector 12 HttpNetwork.server timeSavingsStats:vector ETV
attr recordingmode vector
attr source timeSavings
attr title "Time Savings from Cache"
attr unit s
vector 13 HttpNetwork.server requestsCompleted:vector ETV
attr recordingmode vector
attr source requestComplete
attr title "Completed Requests"
vector 14 HttpNetwork.client[0] requestsSent:vector ETV
attr recordingmode vector
attr source requestSent
attr title "Requests Sent"
vector 15 HttpNetwork.client[0] responsesReceived:vector ETV
attr recordingmode vector
attr source responseReceived
attr title "Responses Received"
vector 16 HttpNetwork.client[0] responseTime:vector ETV
attr recordingmode vector
attr source responseTime
attr title "Response Time"
attr unit s
vector 17 HttpNetwork.client[0] patternUsage:vector ETV
attr recordingmode vector
attr source patternFollowed
attr title "Pattern Followed"
vector 18 HttpNetwork.client[0] randomSelections:vector ETV
attr recordingmode vector
attr source randomChoice
attr title "Random Selections"
vector 19 HttpNetwork.client[1] requestsSent:vector ETV
attr recordingmode vector
attr source requestSent
attr title "Requests Sent"
vector 20 HttpNetwork.client[1] responsesReceived:vector ETV
attr recordingmode vector
attr source responseReceived
attr title "Responses Received"
vector 21 HttpNetwork.client[1] responseTime:vector ETV
attr recordingmode vector
attr source responseTime
attr title "Response Time"
attr unit s
vector 22 HttpNetwork.client[1] patternUsage:vector ETV
attr recordingmode vector
attr source patternFollowed
attr title "Pattern Followed"
vector 23 HttpNetwork.client[1] randomSelections:vector ETV
attr recordingmode vector
attr source randomChoice
attr title "Random Selections"
vector 24 HttpNetwork.client[2] requestsSent:vector ETV
attr recordingmode vector
attr source requestSent
attr title "Requests Sent"
vector 25 HttpNetwork.client[2] responsesReceived:vector ETV
attr recordingmode vector
attr source responseReceived
attr title "Responses Received"
vector 26 HttpNetwork.client[2] responseTime:vector ETV
attr recordingmode vector
attr source responseTime
attr title "Response Time"
attr unit s
vector 27 HttpNetwork.client[2] patternUsage:vector ETV
attr recordingmode vector
attr source patternFollowed
attr title "Pattern Followed"
vector 28 HttpNetwork.client[2] randomSelections:vector ETV
attr recordingmode vector
attr source randomChoice
attr title "Random Selections"
vector 29 HttpNetwork.client[3] requestsSent:vector ETV
attr recordingmode vector
attr source requestSent
attr title "Requests Sent"
vector 30 HttpNetwork.client[3] responsesReceived:vector ETV
attr recordingmode vector
attr source responseReceived
attr title "Responses Received"
vector 31 HttpNetwork.client[3] responseTime:vector ETV
attr recordingmode vector
attr source responseTime
attr title "Response Time"
attr unit s
vector 32 HttpNetwork.client[3] patternUsage:vector ETV
attr recordingmode vector
attr source patternFollowed
attr title "Pattern Followed"
vector 33 HttpNetwork.client[3] randomSelections:vector ETV
attr recordingmode vector
attr source randomChoice
attr title "Random Selections"
vector 34 HttpNetwork.client[4] requestsSent:vector ETV
attr recordingmode vector
attr source requestSent
attr title "Requests Sent"
vector 35 HttpNetwork.client[4] responsesReceived:vector ETV
attr recordingmode vector
attr source responseReceived
attr title "Responses Received"
vector 36 HttpNetwork.client[4] responseTime:vector ETV
attr recordingmode vector
attr source responseTime
attr title "Response Time"
attr unit s
vector 37 HttpNetwork.client[4] patternUsage:vector ETV
attr recordingmode vector
attr source patternFollowed
attr title "Pattern Followed"
vector 38 HttpNetwork.client[4] randomSelections:vector ETV
attr recordingmode vector
attr source randomChoice
attr title "Random Selections"
vector 39 HttpNetwork.client[5] requestsSent:vector ETV
attr recordingmode vector
attr source requestSent
attr title "Requests Sent"
vector 40 HttpNetwork.client[5] responsesReceived:vector ETV
attr recordingmode vector
attr source responseReceived
attr title "Responses Received"
vector 41 HttpNetwork.client[5] responseTime:vector ETV
attr recordingmode vector
attr source responseTime
attr title "Response Time"
attr unit s
vector 42 HttpNetwork.client[5] patternUsage:vector ETV
attr recordingmode vector
attr source patternFollowed
attr title "Pattern Followed"
vector 43 HttpNetwork.client[5] randomSelections:vector ETV
attr recordingmode vector
attr source randomChoice
attr title "Random Selections"
vector 44 HttpNetwork.client[6] requestsSent:vector ETV
attr recordingmode vector
attr source requestSent
attr title "Requests Sent"
vector 45 HttpNetwork.client[6] responsesReceived:vector ETV
attr recordingmode vector
attr source responseReceived
attr title "Responses Received"
vector 46 HttpNetwork.client[6] responseTime:vector ETV
attr recordingmode vector
attr source responseTime
attr title "Response Time"
attr unit s
vector 47 HttpNetwork.client[6] patternUsage:vector ETV
attr recordingmode vector
attr source patternFollowed
attr title "Pattern Followed"
vector 48 HttpNetwork.client[6] randomSelections:vector ETV
attr recordingmode vector
attr source randomChoice
attr title "Random Selections"
vector 49 HttpNetwork.client[7] requestsSent:vector ETV
attr recordingmode vector
attr source requestSent
attr title "Requests Sent"
vector 50 HttpNetwork.client[7] responsesReceived:vector ETV
attr recordingmode vector
attr source responseReceived
attr title "Responses Received"
vector 51 HttpNetwork.client[7] responseTime:vector ETV
attr recordingmode vector
attr source responseTime
attr title "Response Time"
attr unit s
vector 52 HttpNetwork.client[7] patternUsage:vector ETV
attr recordingmode vector
attr source patternFollowed
attr title "Pattern Followed"
vector 53 HttpNetwork.client[7] randomSelections:vector ETV
attr recordingmode vector
attr source randomChoice
attr title "Random Selections"
vector 54 HttpNetwork.client[8] requestsSent:vector ETV
attr recordingmode vector
attr source requestSent
attr title "Requests Sent"
vector 55 HttpNetwork.client[8] responsesReceived:vector ETV
attr recordingmode vector
attr source responseReceived
attr title "Responses Received"
vector 56 HttpNetwork.client[8] responseTime:vector ETV
attr recordingmode vector
attr source responseTime
attr title "Response Time"
attr unit s
vector 57 HttpNetwork.client[8] patternUsage:vector ETV
attr recordingmode vector
attr source patternFollowed
attr title "Pattern Followed"
vector 58 HttpNetwork.client[8] randomSelections:vector ETV
attr recordingmode vector
attr source randomChoice
attr title "Random Selections"
vector 59 HttpNetwork.client[9] requestsSent:vector ETV
attr recordingmode vector
attr source requestSent
attr title "Requests Sent"
vector 60 HttpNetwork.client[9] responsesReceived:vector ETV
attr recordingmode vector
attr source responseReceived
attr title "Responses Received"
vector 61 HttpNetwork.client[9] responseTime:vector ETV
attr recordingmode vector
attr source responseTime
attr title "Response Time"
attr unit s
vector 62 HttpNetwork.client[9] patternUsage:vector ETV
attr recordingmode vector
attr source patternFollowed
attr title "Pattern Followed"
vector 63 HttpNetwork.client[9] randomSelections:vector ETV
attr recordingmode vector
attr source randomChoice
attr title "Random Selections"
49	10228 23 1 1 0.253376608528 0.253376608528 1 1 1 1 1
53	10251 23 1 1 0.253376608528 0.253376608528 1 1 1 1 1
34	10274 23 2 2 0.253752683289 0.253752683289 1 1 1 1 1
37	10297 23 2 2 0.253752683289 0.253752683289 1 1 1 1 1
0	10320 22 3 3 0.263376608528 0.263376608528 1 1 1 1 1
2	10342 37 3 3 0.263376608528 0.263376608528 1 0.12621014841834 0.12621014841834 0.12621014841834 0.015929001563779
5	10379 22 3 3 0.263376608528 0.263376608528 1 1 1 1 1
11	10401 23 3 3 0.263376608528 0.263376608528 1 0 0 0 0
0	10424 22 4 4 0.263752683289 0.263752683289 1 2 2 2 4
2	10446 37 4 4 0.263752683289 0.263752683289 1 0.17587847117368 0.17587847117368 0.17587847117368 0.030933236622392
5	10483 22 4 4 0.263752683289 0.263752683289 1 1 1 1 1
11	10505 23 4 4 0.263752683289 0.263752683289 1 0 0 0 0
59	10528 23 5 5 0.311557968613 0.311557968613 1 1 1 1 1
62	10551 23 5 5 0.311557968613 0.311557968613 1 1 1 1 1
0	10574 22 6 6 0.321557968613 0.321557968613 1 3 3 3 9
2	10596 37 6 6 0.321557968613 0.321557968613 1 0.13315081571705 0.13315081571705 0.13315081571705 0.017729139726116
5	10633 22 6 6 0.321557968613 0.321557968613 1 1 1 1 1
11	10655 23 6 6 0.321557968613 0.321557968613 1 0 0 0 0
29	10678 23 7 7 0.349425478559 0.349425478559 1 1 1 1 1
32	10701 23 7 7 0.349425478559 0.349425478559 1 1 1 1 1
0	10724 22 8 8 0.359425478559 0.359425478559 1 4 4 4 16
2	10746 37 8 8 0.359425478559 0.359425478559 1 0.17854539508133 0.17854539508133 0.17854539508133 0.03187845810475
5	10783 22 8 8 0.359425478559 0.359425478559 1 1 1 1 1
11	10805 23 8 8 0.359425478559 0.359425478559 1 0 0 0 0
14	10828 23 9 9 0.386075745989 0.386075745989 1 1 1 1 1
17	10851 23 9 9 0.386075745989 0.386075745989 1 1 1 1 1
1	10874 23 10 10 0.389586756946 0.389586756946 1 1 1 1 1
10	10897 37 10 10 0.389586756946 0.389586756946 1 0.030161278387 0.030161278387 0.030161278387 0.00090970271393811
13	10934 24 10 10 0.389586756946 0.389586756946 1 1 1 1 1
0	10958 23 11 11 0.396075745989 0.396075745989 1 5 5 5 25
2	10981 38 11 11 0.396075745989 0.396075745989 1 0.17992327632957 0.17992327632957 0.17992327632957 0.032372385365168
5	11019 23 11 11 0.396075745989 0.396075745989 1 1 1 1 1
11	11042 24 11 11 0.396075745989 0.396075745989 1 0 0 0 0
50	11066 24 12 12 0.399586756946 0.399586756946 1 1 1 1 1
51	11090 37 12 12 0.399586756946 0.399586756946 1 0.146210148418 0.146210148418 0.146210148418 0.021377407500414
54	11127 24 13 13 0.416690013371 0.416690013371 1 1 1 1 1
57	11151 24 13 13 0.416690013371 0.416690013371 1 1 1 1 1
0	11175 23 14 14 0.426690013371 0.426690013371 1 6 6 6 36
2	11198 38 14 14 0.426690013371 0.426690013371 1 0.11435132817373 0.11435132817373 0.11435132817373 0.013076226255096
5	11236 23 14 14 0.426690013371 0.426690013371 1 1 1 1 1
11	11259 24 14 14 0.426690013371 0.426690013371 1 0 0 0 0
24	11283 24 15 15 0.438900694903 0.438900694903 1 1 1 1 1
27	11307 24 15 15 0.438900694903 0.438900694903 1 1 1 1 1
1	11331 23 16 16 0.439631154463 0.439631154463 1 2 2 2 4
10	11354 37 16 16 0.439631154463 0.439631154463 1 0.012941141092 0.012941141092 0.012941141092 0.00016747313276305
13	11391 24 16 16 0.439631154463 0.439631154463 1 1 1 1 1
19	11415 23 17 17 0.44317824794 0.44317824794 1 1 1 1 1
22	11438 23 17 17 0.44317824794 0.44317824794 1 1 1 1 1
0	11461 23 18 18 0.448900694903 0.448900694903 1 7 7 7 49
2	11484 38 18 18 0.448900694903 0.448900694903 1 0.17500017381987 0.17500017381987 0.17500017381987 0.030625060836984
5	11522 23 18 18 0.448900694903 0.448900694903 1 1 1 1 1
11	11545 24 18 18 0.448900694903 0.448900694903 1 0 0 0 0
35	11569 24 19 19 0.449631154463 0.449631154463 1 1 1 1 1
36	11593 37 19 19 0.449631154463 0.449631154463 1 0.195878471174 0.195878471174 0.195878471174 0.038368375469464
0	11630 22 20 20 0.45317824794 0.45317824794 1 8 8 8 64
2	11652 37 20 20 0.45317824794 0.45317824794 1 0.16002308573863 0.16002308573863 0.16002308573863 0.025607387969314
5	11689 22 20 20 0.45317824794 0.45317824794 1 1 1 1 1
11	11711 23 20 20 0.45317824794 0.45317824794 1 0 0 0 0
1	11734 22 21 21 0.45470878433 0.45470878433 1 3 3 3 9
10	11756 35 21 21 0.45470878433 0.45470878433 1 0.00153053639 0.00153053639 0.00153053639 2.3425416411142e-06
13	11791 23 21 21 0.45470878433 0.45470878433 1 1 1 1 1
39	11814 24 22 22 0.456709200703 0.456709200703 1 1 1 1 1
42	11838 24 22 22 0.456709200703 0.456709200703 1 1 1 1 1
60	11862 23 23 23 0.46470878433 0.46470878433 1 1 1 1 1
61	11885 36 23 23 0.46470878433 0.46470878433 1 0.153150815717 0.153150815717 0.153150815717 0.023455172354782
0	11921 23 24 24 0.466709200703 0.466709200703 1 9 9 9 81
2	11944 38 24 24 0.466709200703 0.466709200703 1 0.11831571015713 0.11831571015713 0.11831571015713 0.013998607269985
5	11982 23 24 24 0.466709200703 0.466709200703 1 1 1 1 1
11	12005 24 24 24 0.466709200703 0.466709200703 1 0 0 0 0
44	12029 24 25 25 0.485465105623 0.485465105623 1 1 1 1 1
47	12053 24 25 25 0.485465105623 0.485465105623 1 1 1 1 1
0	12077 24 26 26 0.495465105623 0.495465105623 1 10 10 10 100
2	12101 38 26 26 0.495465105623 0.495465105623 1 0.10618140259517 0.10618140259517 0.10618140259517 0.011274490257077
5	12139 23 26 26 0.495465105623 0.495465105623 1 1 1 1 1
11	12162 24 26 26 0.495465105623 0.495465105623 1 0 0 0 0
1	12186 22 27 27 0.53797087364 0.53797087364 1 4 4 4 16
10	12208 36 27 27 0.53797087364 0.53797087364 1 0.042505768017 0.042505768017 0.042505768017 0.001806740314715
13	12244 23 27 27 0.53797087364 0.53797087364 1 1 1 1 1
1	12267 23 28 28 0.541041341545 0.541041341545 1 5 5 5 25
30	12290 23 29 29 0.54797087364 0.54797087364 1 1 1 1 1
31	12313 36 29 29 0.54797087364 0.54797087364 1 0.198545395081 0.198545395081 0.198545395081 0.03942027390787
55	12349 24 30 30 0.551041341545 0.551041341545 1 1 1 1 1
56	12373 37 30 30 0.551041341545 0.551041341545 1 0.134351328174 0.134351328174 0.134351328174 0.018050279382118
1	12410 23 31 31 0.575999022319 0.575999022319 1 6 6 6 36
1	12433 22 32 32 0.58502491086 0.58502491086 1 7 7 7 49
15	12455 24 33 33 0.585999022319 0.585999022319 1 1 1 1 1
16	12479 36 33 33 0.585999022319 0.585999022319 1 0.19992327633 0.19992327633 0.19992327633 0.039969316418522
40	12515 23 34 34 0.59502491086 0.59502491086 1 1 1 1 1
41	12538 36 34 34 0.59502491086 0.59502491086 1 0.138315710157 0.138315710157 0.138315710157 0.019131235676235
1	12574 23 35 35 0.601646508218 0.601646508218 1 8 8 8 64
45	12597 24 36 36 0.611646508218 0.611646508218 1 1 1 1 1
46	12621 37 36 36 0.611646508218 0.611646508218 1 0.126181402595 0.126181402595 0.126181402595 0.015921746360841
1	12658 23 37 37 0.613201333679 0.613201333679 1 9 9 9 81
20	12681 24 38 38 0.623201333679 0.623201333679 1 1 1 1 1
21	12705 37 38 38 0.623201333679 0.623201333679 1 0.180023085739 0.180023085739 0.180023085739 0.032408311398991
1	12742 24 39 39 0.623900868723 0.623900868723 1 10 10 10 100
25	12766 24 40 40 0.633900868723 0.633900868723 1 1 1 1 1
26	12790 36 40 40 0.633900868723 0.633900868723 1 0.19500017382 0.19500017382 0.19500017382 0.03802506778983
39	12826 24 41 41 1.721302882091 1.721302882091 1 2 2 2 4
42	12850 24 41 41 1.721302882091 1.721302882091 1 1 1 1 1
0	12874 24 42 42 1.731302882091 1.731302882091 1 11 11 11 121
2	12898 37 42 42 1.731302882091 1.731302882091 1 0.1827511380262 0.1827511380262 0.1827511380262 0.033397978449871
5	12935 23 42 42 1.731302882091 1.731302882091 1 1 1 1 1
11	12958 24 42 42 1.731302882091 1.731302882091 1 0 0 0 0
29	12982 24 43 43 1.822588179284 1.822588179284 1 2 2 2 4
32	13006 24 43 43 1.822588179284 1.822588179284 1 1 1 1 1
0	13030 24 44 44 1.832588179284 1.832588179284 1 12 12 12 144
2	13054 38 44 44 1.832588179284 1.832588179284 1 0.17648358384485 0.17648358384485 0.17648358384485 0.031146455366723
5	13092 23 44 44 1.832588179284 1.832588179284 1 1 1 1 1
11	13115 24 44 44 1.832588179284 1.832588179284 1 0 0 0 0
49	13139 24 45 45 1.876267277604 1.876267277604 1 2 2 2 4
53	13163 24 45 45 1.876267277604 1.876267277604 1 1 1 1 1
0	13187 24 46 46 1.886267277604 1.886267277604 1 13 13 13 169
2	13211 38 46 46 1.886267277604 1.886267277604 1 0.17922124048128 0.17922124048128 0.17922124048128 0.032120253039648
5	13249 23 46 46 1.886267277604 1.886267277604 1 1 1 1 1
11	13272 24 46 46 1.886267277604 1.886267277604 1 0 0 0 0
14	13296 24 47 47 1.907906265791 1.907906265791 1 2 2 2 4
18	13320 24 47 47 1.907906265791 1.907906265791 1 1 1 1 1
1	13344 24 48 48 1.914054020117 1.914054020117 1 11 11 11 121
3	13368 23 48 48 1.914054020117 1.914054020117 1 1 1 1 1
10	13391 37 48 48 1.914054020117 1.914054020117 1 0.027786742513 0.027786742513 0.027786742513 0.00077210305948376
13	13428 24 48 48 1.914054020117 1.914054020117 1 1 1 1 1
0	13452 24 49 49 1.917906265791 1.917906265791 1 14 14 14 196
2	13476 38 49 49 1.917906265791 1.917906265791 1 0.16546624865052 0.16546624865052 0.16546624865052 0.027379079442476
5	13514 23 49 49 1.917906265791 1.917906265791 1 1 1 1 1
11	13537 24 49 49 1.917906265791 1.917906265791 1 0 0 0 0
40	13561 24 50 50 1.924054020117 1.924054020117 1 2 2 2 4
41	13585 37 50 50 1.924054020117 1.924054020117 1 0.202751138026 0.202751138026 0.202751138026 0.041108023970838
1	13622 24 51 51 2.009071763129 2.009071763129 1 12 12 12 144
3	13646 23 51 51 2.009071763129 2.009071763129 1 2 2 2 4
10	13669 37 51 51 2.009071763129 2.009071763129 1 0.091165497338 0.091165497338 0.091165497338 0.0083111479048849
13	13706 24 51 51 2.009071763129 2.009071763129 1 1 1 1 1
30	13730 24 52 52 2.019071763129 2.019071763129 1 2 2 2 4
31	13754 37 52 52 2.019071763129 2.019071763129 1 0.196483583845 0.196483583845 0.196483583845 0.038605798720575
1	13791 24 53 53 2.065488518085 2.065488518085 1 13 13 13 169
3	13815 23 53 53 2.065488518085 2.065488518085 1 1 1 1 1
50	13838 24 54 54 2.075488518085 2.075488518085 1 2 2 2 4
51	13862 37 54 54 2.075488518085 2.075488518085 1 0.199221240481 0.199221240481 0.199221240481 0.039689102658788
1	13899 24 55 55 2.083372514442 2.083372514442 1 14 14 14 196
3	13923 23 55 55 2.083372514442 2.083372514442 1 1 1 1 1
15	13946 24 56 56 2.093372514442 2.093372514442 1 2 2 2 4
16	13970 37 56 56 2.093372514442 2.093372514442 1 0.185466248651 0.185466248651 0.185466248651 0.034397729388675
34	14007 24 57 57 2.108063675108 2.108063675108 1 2 2 2 4
38	14031 24 57 57 2.108063675108 2.108063675108 1 1 1 1 1
0	14055 24 58 58 2.118063675108 2.118063675108 1 15 15 15 225
2	14079 38 58 58 2.118063675108 2.118063675108 1 0.18996388840818 0.18996388840818 0.18996388840818 0.036086278899154
5	14117 23 58 58 2.118063675108 2.118063675108 1 1 1 1 1
11	14140 24 58 58 2.118063675108 2.118063675108 1 0 0 0 0
24	14164 24 59 59 2.224993394675 2.224993394675 1 2 2 2 4
27	14188 24 59 59 2.224993394675 2.224993394675 1 1 1 1 1
0	14212 24 60 60 2.234993394675 2.234993394675 1 16 16 16 256
2	14236 38 60 60 2.234993394675 2.234993394675 1 0.12237012439734 0.12237012439734 0.12237012439734 0.01497444734502
5	14274 23 60 60 2.234993394675 2.234993394675 1 1 1 1 1
11	14297 24 60 60 2.234993394675 2.234993394675 1 0 0 0 0
54	14321 24 61 61 2.236032318849 2.236032318849 1 2 2 2 4
57	14345 24 61 61 2.236032318849 2.236032318849 1 1 1 1 1
0	14369 24 62 62 2.246032318849 2.246032318849 1 17 17 17 289
2	14393 38 62 62 2.246032318849 2.246032318849 1 0.11967114288539 0.11967114288539 0.11967114288539 0.014321182439495
5	14431 23 62 62 2.246032318849 2.246032318849 1 1 1 1 1
11	14454 24 62 62 2.246032318849 2.246032318849 1 0 0 0 0
1	14478 24 63 63 2.308027563516 2.308027563516 1 15 15 15 225
3	14502 23 63 63 2.308027563516 2.308027563516 1 1 1 1 1
10	14525 37 63 63 2.308027563516 2.308027563516 1 0.061995244667 0.061995244667 0.061995244667 0.0038434103613212
13	14562 24 63 63 2.308027563516 2.308027563516 1 1 1 1 1
35	14586 24 64 64 2.318027563516 2.318027563516 1 2 2 2 4
36	14610 37 64 64 2.318027563516 2.318027563516 1 0.209963888408 0.209963888408 0.209963888408 0.044084834435407
19	14647 24 65 65 2.321765731543 2.321765731543 1 2 2 2 4
22	14671 24 65 65 2.321765731543 2.321765731543 1 1 1 1 1
0	14695 24 66 66 2.331765731543 2.331765731543 1 18 18 18 324
2	14719 38 66 66 2.331765731543 2.331765731543 1 0.11903741275892 0.11903741275892 0.11903741275892 0.014169905636336
5	14757 23 66 66 2.331765731543 2.331765731543 1 1 1 1 1
11	14780 24 66 66 2.331765731543 2.331765731543 1 0 0 0 0
1	14804 24 67 67 2.357363519072 2.357363519072 1 16 16 16 256
3	14828 23 67 67 2.357363519072 2.357363519072 1 3 3 3 9
10	14851 37 67 67 2.357363519072 2.357363519072 1 0.025597787529 0.025597787529 0.025597787529 0.00065524672637983
13	14888 24 67 67 2.357363519072 2.357363519072 1 1 1 1 1
1	14912 24 68 68 2.365703461734 2.365703461734 1 17 17 17 289
3	14936 23 68 68 2.365703461734 2.365703461734 1 4 4 4 16
25	14959 24 69 69 2.367363519072 2.367363519072 1 2 2 2 4
26	14983 37 69 69 2.367363519072 2.367363519072 1 0.142370124397 0.142370124397 0.142370124397 0.020269252320817
55	15020 24 70 70 2.375703461734 2.375703461734 1 2 2 2 4
56	15044 37 70 70 2.375703461734 2.375703461734 1 0.139671142885 0.139671142885 0.139671142885 0.019508028154802
44	15081 24 71 71 2.434663055796 2.434663055796 1 2 2 2 4
47	15105 24 71 71 2.434663055796 2.434663055796 1 1 1 1 1
59	15129 24 72 72 2.435236371126 2.435236371126 1 2 2 2 4
62	15153 24 72 72 2.435236371126 2.435236371126 1 1 1 1 1
0	15177 24 73 73 2.444663055796 2.444663055796 1 19 19 19 361
2	15201 38 73 73 2.444663055796 2.444663055796 1 0.16207658429994 0.16207658429994 0.16207658429994 0.026268819178336
5	15239 23 73 73 2.444663055796 2.444663055796 1 1 1 1 1
11	15262 24 73 73 2.444663055796 2.444663055796 1 0 0 0 0
0	15286 24 74 74 2.445236371126 2.445236371126 1 20 20 20 400
2	15310 38 74 74 2.445236371126 2.445236371126 1 0.15501284135662 0.15501284135662 0.15501284135662 0.024028980985453
5	15348 23 74 74 2.445236371126 2.445236371126 1 1 1 1 1
11	15371 24 74 74 2.445236371126 2.445236371126 1 0 0 0 0
1	15395 24 75 75 2.450803144302 2.450803144302 1 18 18 18 324
3	15419 23 75 75 2.450803144302 2.450803144302 1 5 5 5 25
10	15442 37 75 75 2.450803144302 2.450803144302 1 0.005566773176 0.005566773176 0.005566773176 3.0988963593033e-05
13	15479 24 75 75 2.450803144302 2.450803144302 1 1 1 1 1
20	15503 24 76 76 2.460803144302 2.460803144302 1 2 2 2 4
21	15527 37 76 76 2.460803144302 2.460803144302 1 0.139037412759 0.139037412759 0.139037412759 0.019331402146717
1	15564 24 77 77 2.600249212483 2.600249212483 1 19 19 19 361
3	15588 23 77 77 2.600249212483 2.600249212483 1 6 6 6 36
1	15611 24 78 78 2.606739640096 2.606739640096 1 20 20 20 400
3	15635 23 78 78 2.606739640096 2.606739640096 1 7 7 7 49
60	15658 24 79 79 2.610249212483 2.610249212483 1 2 2 2 4
61	15682 37 79 79 2.610249212483 2.610249212483 1 0.175012841357 0.175012841357 0.175012841357 0.03062949463985
45	15719 24 80 80 2.616739640096 2.616739640096 1 2 2 2 4
46	15743 35 80 80 2.616739640096 2.616739640096 1 0.1820765843 0.1820765843 0.1820765843 0.033151882550355
49	15778 24 81 81 3.164744365122 3.164744365122 1 3 3 3 9
53	15802 24 81 81 3.164744365122 3.164744365122 1 1 1 1 1
0	15826 24 82 82 3.174744365122 3.174744365122 1 21 21 21 441
2	15850 38 82 82 3.174744365122 3.174744365122 1 0.11726527014886 0.11726527014886 0.11726527014886 0.013751143583086
5	15888 23 82 82 3.174744365122 3.174744365122 1 1 1 1 1
11	15911 24 82 82 3.174744365122 3.174744365122 1 0 0 0 0
1	15935 24 83 83 3.292009635271 3.292009635271 1 21 21 21 441
3	15959 23 83 83 3.292009635271 3.292009635271 1 1 1 1 1
6	15982 23 83 83 3.292009635271 3.292009635271 1 1 1 1 1
9	16005 23 83 83 3.292009635271 3.292009635271 1 1 1 1 1
10	16028 37 83 83 3.292009635271 3.292009635271 1 0.117265270149 0.117265270149 0.117265270149 0.013751143583118
13	16065 24 83 83 3.292009635271 3.292009635271 1 1 1 1 1
50	16089 24 84 84 3.302009635271 3.302009635271 1 3 3 3 9
51	16113 37 84 84 3.302009635271 3.302009635271 1 0.137265270149 0.137265270149 0.137265270149 0.018841754389078
14	16150 24 85 85 3.309676083156 3.309676083156 1 3 3 3 9
17	16174 24 85 85 3.309676083156 3.309676083156 1 1 1 1 1
0	16198 24 86 86 3.319676083156 3.319676083156 1 22 22 22 484
2	16222 39 86 86 3.319676083156 3.319676083156 1 0.015571338557397 0.015571338557397 0.015571338557397 0.00024246658446906
4	16261 23 86 86 3.319676083156 3.319676083156 1 1 1 1 1
11	16284 38 86 86 3.319676083156 3.319676083156 1 4.5454545454545 4.5454545454545 4.5454545454545 20.661157024793
12	16322 38 86 86 3.319676083156 3.319676083156 1 0.1344286614426 0.1344286614426 0.1344286614426 0.01807106501725
1	16360 24 87 87 3.335247421713 3.335247421713 1 22 22 22 484
3	16384 23 87 87 3.335247421713 3.335247421713 1 1 1 1 1
10	16407 37 87 87 3.335247421713 3.335247421713 1 0.015571338557 0.015571338557 0.015571338557 0.00024246658445671
13	16444 24 87 87 3.335247421713 3.335247421713 1 1 1 1 1
15	16468 24 88 88 3.345247421713 3.345247421713 1 3 3 3 9
16	16492 37 88 88 3.345247421713 3.345247421713 1 0.035571338557 0.035571338557 0.035571338557 0.0012653201267367
29	16529 24 89 89 3.585964104595 3.585964104595 1 3 3 3 9
32	16553 24 89 89 3.585964104595 3.585964104595 1 1 1 1 1
0	16577 24 90 90 3.595964104595 3.595964104595 1 23 23 23 529
2	16601 38 90 90 3.595964104595 3.595964104595 1 0.17123924572419 0.17123924572419 0.17123924572419 0.02932287927619
5	16639 23 90 90 3.595964104595 3.595964104595 1 1 1 1 1
11	16662 38 90 90 3.595964104595 3.595964104595 1 4.3478260869565 4.3478260869565 4.3478260869565 18.90359168242
39	16700 24 91 91 3.688138824857 3.688138824857 1 3 3 3 9
42	16724 24 91 91 3.688138824857 3.688138824857 1 1 1 1 1
0	16748 24 92 92 3.698138824857 3.698138824857 1 24 24 24 576
2	16772 38 92 92 3.698138824857 3.698138824857 1 0.11319944020652 0.11319944020652 0.11319944020652 0.012814113263069
5	16810 23 92 92 3.698138824857 3.698138824857 1 1 1 1 1
11	16833 38 92 92 3.698138824857 3.698138824857 1 4.1666666666667 4.1666666666667 4.1666666666667 17.361111111111
1	16871 24 93 93 3.767203350319 3.767203350319 1 23 23 23 529
3	16895 23 93 93 3.767203350319 3.767203350319 1 1 1 1 1
10	16918 37 93 93 3.767203350319 3.767203350319 1 0.069064525462 0.069064525462 0.069064525462 0.0047699086772912
13	16955 24 93 93 3.767203350319 3.767203350319 1 1 1 1 1
30	16979 24 94 94 3.777203350319 3.777203350319 1 3 3 3 9
31	17003 37 94 94 3.777203350319 3.777203350319 1 0.191239245724 0.191239245724 0.191239245724 0.036572449105084
1	17040 24 95 95 3.811338265064 3.811338265064 1 24 24 24 576
3	17064 23 95 95 3.811338265064 3.811338265064 1 2 2 2 4
40	17087 24 96 96 3.821338265064 3.821338265064 1 3 3 3 9
41	17111 37 96 96 3.821338265064 3.821338265064 1 0.133199440207 0.133199440207 0.133199440207 0.017742090871458
34	17148 24 97 97 3.834777323741 3.834777323741 1 3 3 3 9
37	17172 24 97 97 3.834777323741 3.834777323741 1 1 1 1 1
0	17196 24 98 98 3.844777323741 3.844777323741 1 25 25 25 625
2	17220 39 98 98 3.844777323741 3.844777323741 1 0.013896307786731 0.013896307786731 0.013896307786731 0.00019310737010355
4	17259 23 98 98 3.844777323741 3.844777323741 1 1 1 1 1
11	17282 24 98 98 3.844777323741 3.844777323741 1 8 8 8 64
12	17306 39 98 98 3.844777323741 3.844777323741 1 0.13610369221327 0.13610369221327 0.13610369221327 0.018524215034084
1	17345 24 99 99 3.858673631528 3.858673631528 1 25 25 25 625
3	17369 23 99 99 3.858673631528 3.858673631528 1 1 1 1 1
6	17392 23 99 99 3.858673631528 3.858673631528 1 1 1 1 1
9	17415 23 99 99 3.858673631528 3.858673631528 1 2 2 2 4
10	17438 37 99 99 3.858673631528 3.858673631528 1 0.013896307787 0.013896307787 0.013896307787 0.00019310737011104
13	17475 24 99 99 3.858673631528 3.858673631528 1 1 1 1 1
35	17499 25 100 100 3.868673631528 3.868673631528 1 3 3 3 9
36	17524 38 100 100 3.868673631528 3.868673631528 1 0.033896307787 0.033896307787 0.033896307787 0.001148959681591
59	17562 25 101 101 3.972417033755 3.972417033755 1 3 3 3 9
62	17587 25 101 101 3.972417033755 3.972417033755 1 1 1 1 1
0	17612 25 102 102 3.982417033755 3.982417033755 1 26 26 26 676
2	17637 40 102 102 3.982417033755 3.982417033755 1 0.011953437019888 0.011953437019888 0.011953437019888 0.00014288465658843