version 3
run General-0-20251025-21:35:00-3052
attr configname General
attr datetime 20251025-21:35:00
attr datetimef 20251025-213500
attr experiment General
attr inifile omnetpp.ini
attr iterationvars ""
attr iterationvarsd ""
attr iterationvarsf ""
attr measurement ""
attr network HttpNetwork
attr processid 3052
attr repetition 0
attr replication #0
attr resultdir results
attr runnumber 0
attr seedset 0
config network HttpNetwork

vector 0 HttpNetwork.server requestsReceived:vector ETV
attr recordingmode vector
attr source requestReceived
attr title "Requests Received"
vector 1 HttpNetwork.server responsesGenerated:vector ETV
attr recordingmode vector
attr source responseGenerated
attr title "Responses Generated"
vector 2 HttpNetwork.server processingDelay:vector ETV
attr recordingmode vector
attr source processingTime
attr title "Processing Delay"
attr unit s
vector 3 HttpNetwork.server patternsLearned:vector ETV
attr recordingmode vector
attr source patternLearned
attr title "Navigation Patterns Learned"
vector 4 HttpNetwork.server cacheHits:vector ETV
attr recordingmode vector
attr source cacheHit
attr title "Cache Hits"
vector 5 HttpNetwork.server cacheMisses:vector ETV
attr recordingmode vector
attr source cacheMiss
attr title "Cache Misses"
vector 6 HttpNetwork.server predictiveCaching:vector ETV
attr recordingmode vector
attr source cachePreGenerated
attr title "Pages Pre-cached"
vector 7 HttpNetwork.server cacheExpired:vector ETV
attr recordingmode vector
attr source cacheExpired
attr title "Cache Entries Expired"
vector 8 HttpNetwork.server cacheEvicted:vector ETV
attr recordingmode vector
attr source cacheEvicted
attr title "Cache Entries Evicted"
vector 9 HttpNetwork.server cacheSize:vector ETV
attr recordingmode vector
attr source cacheSize
attr title "Current Cache Size"
vector 10 HttpNetwork.server responseTimeStats:vector ETV
attr recordingmode vector
attr source responseTime
attr title "Response Time per Request"
attr unit s
vector 11 HttpNetwork.server cacheHitRateStats:vector ETV
attr recordingmode vector
attr source cacheHitRate
attr title "Cache Hit Rate"
attr unit %
vector 12 HttpNetwork.server timeSavingsStats:vector ETV
attr recordingmode vector
attr source timeSavings
attr title "Time Savings from Cache"
attr unit s
vector 13 HttpNetwork.server requestsCompleted:vector ETV
attr recordingmode vector
attr source requestComplete
attr title "Completed Requests"
vector 14 HttpNetwork.client[0] requestsSent:vector ETV
attr recordingmode vector
attr source requestSent
attr title "Requests Sent"
vector 15 HttpNetwork.client[0] responsesReceived:vector ETV
attr recordingmode vector
attr source responseReceived
attr title "Responses Received"
vector 16 HttpNetwork.client[0] responseTime:vector ETV
attr recordingmode vector
attr source responseTime
attr title "Response Time"
attr unit s
vector 17 HttpNetwork.client[0] patternUsage:vector ETV
attr recordingmode vector
attr source patternFollowed
attr title "Pattern Followed"
vector 18 HttpNetwork.client[0] randomSelections:vector ETV
attr recordingmode vector
attr source randomChoice
attr title "Random Selections"
vector 19 HttpNetwork.client[1] requestsSent:vector ETV
attr recordingmode vector
attr source requestSent
attr title "Requests Sent"
vector 20 HttpNetwork.client[1] responsesReceived:vector ETV
attr recordingmode vector
attr source responseReceived
attr title "Responses Received"
vector 21 HttpNetwork.client[1] responseTime:vector ETV
attr recordingmode vector
attr source responseTime
attr title "Response Time"
attr unit s
vector 22 HttpNetwork.client[1] patternUsage:vector ETV
attr recordingmode vector
attr source patternFollowed
attr title "Pattern Followed"
vector 23 HttpNetwork.client[1] randomSelections:vector ETV
attr recordingmode vector
attr source randomChoice
attr title "Random Selections"
vector 24 HttpNetwork.client[2] requestsSent:vector ETV
attr recordingmode vector
attr source requestSent
attr title "Requests Sent"
vector 25 HttpNetwork.client[2] responsesReceived:vector ETV
attr recordingmode vector
attr source responseReceived
attr title "Responses Received"
vector 26 HttpNetwork.client[2] responseTime:vector ETV
attr recordingmode vector
attr source responseTime
attr title "Response Time"
attr unit s
vector 27 HttpNetwork.client[2] patternUsage:vector ETV
attr recordingmode vector
attr source patternFollowed
attr title "Pattern Followed"
vector 28 HttpNetwork.client[2] randomSelections:vector ETV
attr recordingmode vector
attr source randomChoice
attr title "Random Selections"
vector 29 HttpNetwork.client[3] requestsSent:vector ETV
attr recordingmode vector
attr source requestSent
attr title "Requests Sent"
vector 30 HttpNetwork.client[3] responsesReceived:vector ETV
attr recordingmode vector
attr source responseReceived
attr title "Responses Received"
vector 31 HttpNetwork.client[3] responseTime:vector ETV
attr recordingmode vector
attr source responseTime
attr title "Response Time"
attr unit s
vector 32 HttpNetwork.client[3] patternUsage:vector ETV
attr recordingmode vector
attr source patternFollowed
attr title "Pattern Followed"
vector 33 HttpNetwork.client[3] randomSelections:vector ETV
attr recordingmode vector
attr source randomChoice
attr title "Random Selections"
vector 34 HttpNetwork.client[4] requestsSent:vector ETV
attr recordingmode vector
attr source requestSent
attr title "Requests Sent"
vector 35 HttpNetwork.client[4] responsesReceived:vector ETV
attr recordingmode vector
attr source responseReceived
attr title "Responses Received"
vector 36 HttpNetwork.client[4] responseTime:vector ETV
attr recordingmode vector
attr source responseTime
attr title "Response Time"
attr unit s
vector 37 HttpNetwork.client[4] patternUsage:vector ETV
attr recordingmode vector
attr source patternFollowed
attr title "Pattern Followed"
vector 38 HttpNetwork.client[4] randomSelections:vector ETV
attr recordingmode vector
attr source randomChoice
attr title "Random Selections"
vector 39 HttpNetwork.client[5] requestsSent:vector ETV
attr recordingmode vector
attr source requestSent
attr title "Requests Sent"
vector 40 HttpNetwork.client[5] responsesReceived:vector ETV
attr recordingmode vector
attr source responseReceived
attr title "Responses Received"
vector 41 HttpNetwork.client[5] responseTime:vector ETV
attr recordingmode vector
attr source responseTime
attr title "Response Time"
attr unit s
vector 42 HttpNetwork.client[5] patternUsage:vector ETV
attr recordingmode vector
attr source patternFollowed
attr title "Pattern Followed"
vector 43 HttpNetwork.client[5] randomSelections:vector ETV
attr recordingmode vector
attr source randomChoice
attr title "Random Selections"
vector 44 HttpNetwork.client[6] requestsSent:vector ETV
attr recordingmode vector
attr source requestSent
attr title "Requests Sent"
vector 45 HttpNetwork.client[6] responsesReceived:vector ETV
attr recordingmode vector
attr source responseReceived
attr title "Responses Received"
vector 46 HttpNetwork.client[6] responseTime:vector ETV
attr recordingmode vector
attr source responseTime
attr title "Response Time"
attr unit s
vector 47 HttpNetwork.client[6] patternUsage:vector ETV
attr recordingmode vector
attr source patternFollowed
attr title "Pattern Followed"
vector 48 HttpNetwork.client[6] randomSelections:vector ETV
attr recordingmode vector
attr source randomChoice
attr title "Random Selections"
vector 49 HttpNetwork.client[7] requestsSent:vector ETV
attr recordingmode vector
attr source requestSent
attr title "Requests Sent"
vector 50 HttpNetwork.client[7] responsesReceived:vector ETV
attr recordingmode vector
attr source responseReceived
attr title "Responses Received"
vector 51 HttpNetwork.client[7] responseTime:vector ETV
attr recordingmode vector
attr source responseTime
attr title "Response Time"
attr unit s
vector 52 HttpNetwork.client[7] patternUsage:vector ETV
attr recordingmode vector
attr source patternFollowed
attr title "Pattern Followed"
vector 53 HttpNetwork.client[7] randomSelections:vector ETV
attr recordingmode vector
attr source randomChoice
attr title "Random Selections"
vector 54 HttpNetwork.client[8] requestsSent:vector ETV
attr recordingmode vector
attr source requestSent
attr title "Requests Sent"
vector 55 HttpNetwork.client[8] responsesReceived:vector ETV
attr recordingmode vector
attr source responseReceived
attr title "Responses Received"
vector 56 HttpNetwork.client[8] responseTime:vector ETV
attr recordingmode vector
attr source responseTime
attr title "Response Time"
attr unit s
vector 57 HttpNetwork.client[8] patternUsage:vector ETV
attr recordingmode vector
attr source patternFollowed
attr title "Pattern Followed"
vector 58 HttpNetwork.client[8] randomSelections:vector ETV
attr recordingmode vector
attr source randomChoice
attr title "Random Selections"
vector 59 HttpNetwork.client[9] requestsSent:vector ETV
attr recordingmode vector
attr source requestSent
attr title "Requests Sent"
vector 60 HttpNetwork.client[9] responsesReceived:vector ETV
attr recordingmode vector
attr source responseReceived
attr title "Responses Received"
vector 61 HttpNetwork.client[9] responseTime:vector ETV
attr recordingmode vector
attr source responseTime
attr title "Response Time"
attr unit s
vector 62 HttpNetwork.client[9] patternUsage:vector ETV
attr recordingmode vector
attr source patternFollowed
attr title "Pattern Followed"
vector 63 HttpNetwork.client[9] randomSelections:vector ETV
attr recordingmode vector
attr source randomChoice
attr title "Random Selections"
0	3	0.263376608528	1
0	4	0.263752683289	2
0	6	0.321557968613	3
0	8	0.359425478559	4
0	11	0.396075745989	5
0	14	0.426690013371	6
0	18	0.448900694903	7
0	20	0.45317824794	8
0	24	0.466709200703	9
0	26	0.495465105623	10
0	42	1.731302882091	11
0	44	1.832588179284	12
0	46	1.886267277604	13
0	49	1.917906265791	14
0	58	2.118063675108	15
0	60	2.234993394675	16
0	62	2.246032318849	17
0	66	2.331765731543	18
0	73	2.444663055796	19
0	74	2.445236371126	20
0	82	3.174744365122	21
0	86	3.319676083156	22
0	90	3.595964104595	23
0	92	3.698138824857	24
0	98	3.844777323741	25
0	102	3.982417033755	26
0	106	4.039725291115	27
0	110	4.298696227018	28
0	112	4.352658712841	29
0	118	4.45031188609	30
0	122	4.787314171963	31
0	126	4.86286815931	32
0	130	5.048244220973	33
0	134	5.302963194139	34
0	138	5.681565480141	35
0	140	5.727043679321	36
0	144	5.763657347638	37
0	147	5.779232016036	38
0	154	5.931708844829	39
0	159	6.004536588563	40
0	160	6.005082462108	41
0	166	6.291103965898	42
0	170	6.321176518905	43
0	174	6.819124683737	44
0	178	7.11607268462	45
0	182	7.180420376933	46
0	185	7.197659221089	47
0	188	7.309151031488	48
0	194	7.338919705546	49
0	198	7.591489599908	50
0	202	7.693838712082	51
0	206	7.782843817091	52
0	210	8.062959431452	53
0	214	8.171762402593	54
0	216	8.23020043499	55
0	223	8.698818597975	56
0	225	8.753530179308	57
0	229	8.785228568105	58
0	236	8.99025922988	59
0	240	9.070263166778	60
0	242	9.143682038269	61
0	247	9.265726908444	62
0	252	9.343759225558	63
0	257	9.518123715889	64
0	262	10.03777028172	65
0	266	10.069158140219	66
0	270	10.116881186485	67
0	274	10.15514546573	68
0	278	10.303229657935	69
0	282	10.638859574589	70
0	286	10.822338994327	71
0	288	10.840227723109	72
0	294	10.95512348474	73
0	298	11.241389622961	74
0	302	11.33996569258	75
0	306	11.63022376249	76
0	310	11.790089114048	77
0	314	11.898985878382	78
0	318	12.199679831297	79
0	321	12.224572708254	80
0	324	12.289137667513	81
0	330	12.460804914657	82
0	332	12.476394624724	83
0	336	12.589236756757	84
0	342	12.694016383113	85
0	346	13.041859831916	86
0	350	13.232434610525	87
0	354	13.258659265676	88
0	358	13.533848666875	89
0	362	13.662910244782	90
0	366	13.73417678169	91
0	370	13.945301562224	92
0	374	13.972437301027	93
0	379	14.257407787306	94
0	384	14.415848490237	95
0	388	14.506508925028	96
0	392	14.713446077128	97
0	394	14.733034411639	98
0	398	14.797744634677	99
0	405	15.131540751626	100
0	409	15.405353188162	101
0	412	15.543452059839	102
0	415	15.644448932785	103
1	10	0.389586756946	1
1	16	0.439631154463	2
1	21	0.45470878433	3
1	27	0.53797087364	4
1	28	0.541041341545	5
1	31	0.575999022319	6
1	32	0.58502491086	7
1	35	0.601646508218	8
1	37	0.613201333679	9
1	39	0.623900868723	10
1	48	1.914054020117	11
1	51	2.009071763129	12
1	53	2.065488518085	13
1	55	2.083372514442	14
1	63	2.308027563516	15
1	67	2.357363519072	16
1	68	2.365703461734	17
1	75	2.450803144302	18
1	77	2.600249212483	19
1	78	2.606739640096	20
1	83	3.292009635271	21
1	87	3.335247421713	22
1	93	3.767203350319	23
1	95	3.811338265064	24
1	99	3.858673631528	25
1	103	3.994370470775	26
1	107	4.055132835127	27
1	113	4.365390436986	28
1	115	4.403542566225	29
1	119	4.467410997416	30
1	123	4.80430657571	31
1	127	4.877072830267	32
1	131	5.157319797796	33
1	135	5.322060262928	34
1	141	5.738583118601	35
1	146	5.777765480048	36
1	149	5.799051374643	37
1	151	5.829890768066	38
1	155	5.943126785636	39
1	161	6.014542830198	40
1	162	6.018559099294	41
1	167	6.304651671376	42
1	171	6.332983046332	43
1	175	6.83906500885	44
1	179	7.135222091776	45
1	184	7.192765562058	46
1	189	7.324456822721	47
1	190	7.327507375876	48
1	195	7.357201287164	49
1	199	7.606087340694	50
1	203	7.711853613102	51
1	207	7.793354265612	52
1	211	8.079802790766	53
1	217	8.241004408359	54
1	219	8.283922853873	55
1	226	8.765877386431	56
1	230	8.798033922181	57
1	232	8.846321064214	58
1	237	9.006479572002	59
1	243	9.20569563725	60
1	246	9.256954898218	61
1	249	9.277530014957	62
1	253	9.355717973866	63
1	258	9.69001713134	64
1	263	10.054076426566	65
1	267	10.08010544863	66
1	271	10.132436440228	67
1	275	10.261196612903	68
1	279	10.318390791879	69
1	283	10.652687632154	70
1	289	10.84135047335	71
1	291	10.85713145036	72
1	295	10.966010944918	73
1	299	11.257775348395	74
1	303	11.354400656609	75
1	307	11.641627561111	76
1	311	11.805762358625	77
1	315	12.005906290295	78
1	320	12.219075572982	79
1	325	12.37914556866	80
1	327	12.433822369249	81
1	333	12.490263343633	82
1	337	12.5992856103	83
1	339	12.660607130225	84
1	343	12.706831983539	85
1	347	13.056150589004	86
1	351	13.244016428562	87
1	355	13.422820333979	88
1	359	13.55009335615	89
1	363	13.675318551192	90
1	367	13.746412510277	91
1	371	13.957520965298	92
1	375	13.989844129498	93
1	380	14.269678359997	94
1	385	14.43323762739	95
1	389	14.523197173629	96
1	395	14.751616743	97
1	399	14.857717417356	98
1	401	14.910091824168	99
1	406	15.243911622532	100
1	411	15.536224362453	101
1	416	15.665081408104	102
1	418	15.826778572794	103
2	3	0.263376608528	0.12621014841834
2	4	0.263752683289	0.17587847117368
2	6	0.321557968613	0.13315081571705
2	8	0.359425478559	0.17854539508133
2	11	0.396075745989	0.17992327632957
2	14	0.426690013371	0.11435132817373
2	18	0.448900694903	0.17500017381987
2	20	0.45317824794	0.16002308573863
2	24	0.466709200703	0.11831571015713
2	26	0.495465105623	0.10618140259517
2	42	1.731302882091	0.1827511380262
2	44	1.832588179284	0.17648358384485
2	46	1.886267277604	0.17922124048128
2	49	1.917906265791	0.16546624865052
2	58	2.118063675108	0.18996388840818
2	60	2.234993394675	0.12237012439734
2	62	2.246032318849	0.11967114288539
2	66	2.331765731543	0.11903741275892
2	73	2.444663055796	0.16207658429994
2	74	2.445236371126	0.15501284135662
2	82	3.174744365122	0.11726527014886
2	86	3.319676083156	0.015571338557397
2	90	3.595964104595	0.17123924572419
2	92	3.698138824857	0.11319944020652
2	98	3.844777323741	0.013896307786731
2	102	3.982417033755	0.011953437019888
2	106	4.039725291115	0.015407544011679
2	110	4.298696227018	0.1048463392069
2	112	4.352658712841	0.012731724144953
2	118	4.45031188609	0.017099111325627
2	122	4.787314171963	0.016992403746807
2	126	4.86286815931	0.014204670956664
2	130	5.048244220973	0.10907557682314
2	134	5.302963194139	0.019097068788761
2	138	5.681565480141	0.14832528792483
2	140	5.727043679321	0.011539439279842
2	144	5.763657347638	0.014108132410495
2	147	5.779232016036	0.019819358607267
2	154	5.931708844829	0.011417940807181
2	159	6.004536588563	0.010006241635169
2	160	6.005082462108	0.013476637185872
2	166	6.291103965898	0.01354770547762
2	170	6.321176518905	0.011806527427394
2	174	6.819124683737	0.019940325113334
2	178	7.11607268462	0.019149407156072
2	182	7.180420376933	0.012345185125496
2	185	7.197659221089	0.1267976016322
2	188	7.309151031488	0.018356344388497
2	194	7.338919705546	0.018281581618291
2	198	7.591489599908	0.014597740785596
2	202	7.693838712082	0.018014901019904
2	206	7.782843817091	0.010510448521461
2	210	8.062959431452	0.016843359313792
2	214	8.171762402593	0.11216045127994
2	216	8.23020043499	0.010803973368652
2	223	8.698818597975	0.14750246623936
2	225	8.753530179308	0.01234720712284
2	229	8.785228568105	0.012805354076166
2	236	8.99025922988	0.016220342122073
2	240	9.070263166778	0.13543247047228
2	242	9.143682038269	0.11327285994919
2	247	9.265726908444	0.011803106512868
2	252	9.343759225558	0.011958748308392
2	257	9.518123715889	0.17189341545112
2	262	10.03777028172	0.016306144846449
2	266	10.069158140219	0.010947308410635
2	270	10.116881186485	0.015555253743428
2	274	10.15514546573	0.10605114717254
2	278	10.303229657935	0.015161133943592
2	282	10.638859574589	0.013828057564678
2	286	10.822338994327	0.019011479022709
2	288	10.840227723109	0.016903727251292
2	294	10.95512348474	0.010887460177733
2	298	11.241389622961	0.016385725434189
2	302	11.33996569258	0.014434964028803
2	306	11.63022376249	0.011403798620717
2	310	11.790089114048	0.015673244577116
2	314	11.898985878382	0.10692041191309
2	318	12.199679831297	0.019395741685217
2	321	12.224572708254	0.15457286040578
2	324	12.289137667513	0.14468470173587
2	330	12.460804914657	0.1998022155682
2	332	12.476394624724	0.013868718908787
2	336	12.589236756757	0.010048853543287
2	342	12.694016383113	0.01281560042629
2	346	13.041859831916	0.014290757087675
2	350	13.232434610525	0.011581818037459
2	354	13.258659265676	0.16416106830311
2	358	13.533848666875	0.016244689274924
2	362	13.662910244782	0.012408306409993
2	366	13.73417678169	0.012235728586763
2	370	13.945301562224	0.012219403073903
2	374	13.972437301027	0.017406828470801
2	379	14.257407787306	0.012270572691024
2	384	14.415848490237	0.017389137152734
2	388	14.506508925028	0.016688248601296
2	392	14.713446077128	0.14427134022754
2	394	14.733034411639	0.018582331360595
2	398	14.797744634677	0.11234718949133
2	405	15.131540751626	0.11237087090594
2	409	15.405353188162	0.13087117429118
2	412	15.543452059839	0.12162934826529
2	415	15.644448932785	0.18232964000905
3	48	1.914054020117	1
3	51	2.009071763129	2
3	53	2.065488518085	1
3	55	2.083372514442	1
3	63	2.308027563516	1
3	67	2.357363519072	3
3	68	2.365703461734	4
3	75	2.450803144302	5
3	77	2.600249212483	6
3	78	2.606739640096	7
3	83	3.292009635271	1
3	87	3.335247421713	1
3	93	3.767203350319	1
3	95	3.811338265064	2
3	99	3.858673631528	1
3	103	3.994370470775	3
3	107	4.055132835127	4
3	113	4.365390436986	5
3	115	4.403542566225	1
3	119	4.467410997416	6
3	123	4.80430657571	7
3	131	5.157319797796	2
3	135	5.322060262928	1
3	141	5.738583118601	2
3	146	5.777765480048	3
3	149	5.799051374643	4
3	151	5.829890768066	1
3	155	5.943126785636	5
3	161	6.014542830198	6
3	162	6.018559099294	7
3	167	6.304651671376	1
3	171	6.332983046332	2
3	175	6.83906500885	8
3	179	7.135222091776	9
3	184	7.192765562058	10
3	189	7.324456822721	2
3	190	7.327507375876	11
3	195	7.357201287164	12
3	199	7.606087340694	13
3	203	7.711853613102	2
3	207	7.793354265612	1
3	211	8.079802790766	3
3	217	8.241004408359	8
3	219	8.283922853873	1
3	226	8.765877386431	9
3	230	8.798033922181	10
3	232	8.846321064214	3
3	237	9.006479572002	8
3	243	9.20569563725	11
3	246	9.256954898218	12
3	249	9.277530014957	1
3	253	9.355717973866	1
3	258	9.69001713134	9
3	263	10.054076426566	2
3	267	10.08010544863	10
3	271	10.132436440228	14
3	279	10.318390791879	11
3	283	10.652687632154	12
3	289	10.84135047335	15
3	291	10.85713145036	13
3	295	10.966010944918	13
3	299	11.257775348395	16
3	303	11.354400656609	17
3	307	11.641627561111	14
3	311	11.805762358625	14
3	315	12.005906290295	1
3	320	12.219075572982	18
3	325	12.37914556866	2
3	327	12.433822369249	1
3	333	12.490263343633	19
3	337	12.5992856103	20
3	339	12.660607130225	4
3	343	12.706831983539	15
3	347	13.056150589004	21
3	355	13.422820333979	3
3	359	13.55009335615	3
3	363	13.675318551192	16
3	367	13.746412510277	17
3	371	13.957520965298	1
3	375	13.989844129498	1
3	380	14.269678359997	2
3	385	14.43323762739	15
3	389	14.523197173629	16
3	395	14.751616743	17
3	399	14.857717417356	18
3	401	14.910091824168	4
3	406	15.243911622532	18
3	411	15.536224362453	19
3	416	15.665081408104	20
4	86	3.319676083156	1
4	98	3.844777323741	1
4	102	3.982417033755	1
4	106	4.039725291115	1
4	112	4.352658712841	1
4	118	4.45031188609	1
4	122	4.787314171963	1
4	126	4.86286815931	1
4	134	5.302963194139	1
4	140	5.727043679321	1
4	144	5.763657347638	1
4	147	5.779232016036	1
4	154	5.931708844829	1
4	159	6.004536588563	1
4	160	6.005082462108	1
4	166	6.291103965898	1
4	170	6.321176518905	1
4	174	6.819124683737	1
4	178	7.11607268462	1
4	182	7.180420376933	1
4	188	7.309151031488	1
4	194	7.338919705546	1
4	198	7.591489599908	1
4	202	7.693838712082	1
4	206	7.782843817091	1
4	210	8.062959431452	1
4	216	8.23020043499	1
4	225	8.753530179308	1
4	229	8.785228568105	1
4	236	8.99025922988	1
4	247	9.265726908444	1
4	252	9.343759225558	1
4	262	10.03777028172	1
4	266	10.069158140219	1
4	270	10.116881186485	1
4	278	10.303229657935	1
4	282	10.638859574589	1
4	286	10.822338994327	1
4	288	10.840227723109	1
4	294	10.95512348474	1
4	298	11.241389622961	1
4	302	11.33996569258	1
4	306	11.63022376249	1
4	310	11.790089114048	1
4	318	12.199679831297	1
4	332	12.476394624724	1
4	336	12.589236756757	1
4	342	12.694016383113	1
4	346	13.041859831916	1
4	350	13.232434610525	1
4	358	13.533848666875	1
4	362	13.662910244782	1
4	366	13.73417678169	1
4	370	13.945301562224	1
4	374	13.972437301027	1
4	379	14.257407787306	1
4	384	14.415848490237	1
4	388	14.506508925028	1
4	394	14.733034411639	1
5	3	0.263376608528	1
5	4	0.263752683289	1
5	6	0.321557968613	1
5	8	0.359425478559	1
5	11	0.396075745989	1
5	14	0.426690013371	1
5	18	0.448900694903	1
5	20	0.45317824794	1
5	24	0.466709200703	1
5	26	0.495465105623	1
5	42	1.731302882091	1
5	44	1.832588179284	1
5	46	1.886267277604	1
5	49	1.917906265791	1
5	58	2.118063675108	1
5	60	2.234993394675	1
5	62	2.246032318849	1
5	66	2.331765731543	1
5	73	2.444663055796	1
5	74	2.445236371126	1
5	82	3.174744365122	1
5	90	3.595964104595	1
5	92	3.698138824857	1
5	110	4.298696227018	1
5	130	5.048244220973	1
5	138	5.681565480141	1
5	185	7.197659221089	1
5	214	8.171762402593	1
5	223	8.698818597975	1
5	240	9.070263166778	1
5	242	9.143682038269	1
5	257	9.518123715889	1
5	274	10.15514546573	1
5	314	11.898985878382	1
5	321	12.224572708254	1
5	324	12.289137667513	1
5	330	12.460804914657	1
5	354	13.258659265676	1
5	392	14.713446077128	1
5	398	14.797744634677	1
5	405	15.131540751626	1
5	409	15.405353188162	1
5	412	15.543452059839	1
5	415	15.644448932785	1
6	83	3.292009635271	1
6	99	3.858673631528	1
6	115	4.403542566225	1
6	237	9.006479572002	1
6	253	9.355717973866	1
6	263	10.054076426566	1
6	385	14.43323762739	1
6	418	15.826778572794	1
7	220	8.292009635271	1
7	234	8.858673631528	1
7	255	9.403542566225	1
7	377	14.006479572002	1
7	382	14.355717973866	1
7	403	15.054076426566	1
9	83	3.292009635271	1
9	99	3.858673631528	2
9	115	4.403542566225	3
9	220	8.292009635271	2
9	234	8.858673631528	1
9	237	9.006479572002	2
9	253	9.355717973866	3
9	255	9.403542566225	2
9	263	10.054076426566	3
9	377	14.006479572002	2
9	382	14.355717973866	1
9	385	14.43323762739	2
9	403	15.054076426566	1
9	418	15.826778572794	2
10	10	0.389586756946	0.030161278387
10	16	0.439631154463	0.012941141092
10	21	0.45470878433	0.00153053639
10	27	0.53797087364	0.042505768017
10	48	1.914054020117	0.027786742513
10	51	2.009071763129	0.091165497338
10	63	2.308027563516	0.061995244667
10	67	2.357363519072	0.025597787529
10	75	2.450803144302	0.005566773176
10	83	3.292009635271	0.117265270149
10	87	3.335247421713	0.015571338557
10	93	3.767203350319	0.069064525462
10	99	3.858673631528	0.013896307787
10	103	3.994370470775	0.01195343702
10	107	4.055132835127	0.015407544012
10	113	4.365390436986	0.012731724145
10	119	4.467410997416	0.017099111326
10	123	4.80430657571	0.016992403747
10	127	4.877072830267	0.014204670957
10	131	5.157319797796	0.109075576823
10	135	5.322060262928	0.019097068789
10	141	5.738583118601	0.01153943928
10	146	5.777765480048	0.01410813241
10	149	5.799051374643	0.019819358607
10	155	5.943126785636	0.011417940807
10	161	6.014542830198	0.010006241635
10	162	6.018559099294	0.013476637186
10	167	6.304651671376	0.013547705478
10	171	6.332983046332	0.011806527427
10	175	6.83906500885	0.019940325113
10	179	7.135222091776	0.019149407156
10	184	7.192765562058	0.012345185125
10	189	7.324456822721	0.015305791233
10	195	7.357201287164	0.018281581618
10	199	7.606087340694	0.014597740786
10	203	7.711853613102	0.01801490102
10	207	7.793354265612	0.010510448521
10	211	8.079802790766	0.016843359314
10	217	8.241004408359	0.010803973369
10	226	8.765877386431	0.012347207123
10	230	8.798033922181	0.012805354076
10	237	9.006479572002	0.016220342122
10	243	9.20569563725	0.062013598981
10	249	9.277530014957	0.011803106513
10	253	9.355717973866	0.011958748308
10	258	9.69001713134	0.171893415451
10	263	10.054076426566	0.016306144846
10	267	10.08010544863	0.010947308411
10	271	10.132436440228	0.015555253743
10	275	10.261196612903	0.106051147173
10	279	10.318390791879	0.015161133944
10	283	10.652687632154	0.013828057565
10	289	10.84135047335	0.019011479023
10	291	10.85713145036	0.016903727251
10	295	10.966010944918	0.010887460178
10	299	11.257775348395	0.016385725434
10	303	11.354400656609	0.014434964029
10	307	11.641627561111	0.011403798621
10	311	11.805762358625	0.015673244577
10	315	12.005906290295	0.106920411913
10	320	12.219075572982	0.019395741685
10	325	12.37914556866	0.154572860406
10	327	12.433822369249	0.144684701736
10	333	12.490263343633	0.013868718909
10	337	12.5992856103	0.010048853543
10	339	12.660607130225	0.199802215568
10	343	12.706831983539	0.012815600426
10	347	13.056150589004	0.014290757088
10	351	13.244016428562	0.011581818037
10	355	13.422820333979	0.164161068303
10	359	13.55009335615	0.016244689275
10	363	13.675318551192	0.01240830641
10	367	13.746412510277	0.012235728587
10	371	13.957520965298	0.012219403074
10	375	13.989844129498	0.017406828471
10	380	14.269678359997	0.012270572691
10	385	14.43323762739	0.017389137153
10	389	14.523197173629	0.016688248601
10	395	14.751616743	0.018582331361
10	399	14.857717417356	0.059972782679
10	406	15.243911622532	0.112370870906
10	411	15.536224362453	0.130871174291
10	416	15.665081408104	0.020632475319
11	3	0.263376608528	0
11	4	0.263752683289	0
11	6	0.321557968613	0
11	8	0.359425478559	0
11	11	0.396075745989	0
11	14	0.426690013371	0
11	18	0.448900694903	0
11	20	0.45317824794	0
11	24	0.466709200703	0
11	26	0.495465105623	0
11	42	1.731302882091	0
11	44	1.832588179284	0
11	46	1.886267277604	0
11	49	1.917906265791	0
11	58	2.118063675108	0
11	60	2.234993394675	0
11	62	2.246032318849	0
11	66	2.331765731543	0
11	73	2.444663055796	0
11	74	2.445236371126	0
11	82	3.174744365122	0
11	86	3.319676083156	4.5454545454545
11	90	3.595964104595	4.3478260869565
11	92	3.698138824857	4.1666666666667
11	98	3.844777323741	8
11	102	3.982417033755	11.538461538462
11	106	4.039725291115	14.814814814815
11	110	4.298696227018	14.285714285714
11	112	4.352658712841	17.241379310345
11	118	4.45031188609	20
11	122	4.787314171963	22.58064516129
11	126	4.86286815931	25
11	130	5.048244220973	24.242424242424
11	134	5.302963194139	26.470588235294
11	138	5.681565480141	25.714285714286
11	140	5.727043679321	27.777777777778
11	144	5.763657347638	29.72972972973
11	147	5.779232016036	31.578947368421
11	154	5.931708844829	33.333333333333
11	159	6.004536588563	35
11	160	6.005082462108	36.585365853659
11	166	6.291103965898	38.095238095238
11	170	6.321176518905	39.53488372093
11	174	6.819124683737	40.909090909091
11	178	7.11607268462	42.222222222222
11	182	7.180420376933	43.478260869565
11	185	7.197659221089	42.553191489362
11	188	7.309151031488	43.75
11	194	7.338919705546	44.897959183673
11	198	7.591489599908	46
11	202	7.693838712082	47.058823529412
11	206	7.782843817091	48.076923076923
11	210	8.062959431452	49.056603773585
11	214	8.171762402593	48.148148148148
11	216	8.23020043499	49.090909090909
11	223	8.698818597975	48.214285714286
11	225	8.753530179308	49.122807017544
11	229	8.785228568105	50
11	236	8.99025922988	50.847457627119
11	240	9.070263166778	50
11	242	9.143682038269	49.180327868852
11	247	9.265726908444	50
11	252	9.343759225558	50.793650793651
11	257	9.518123715889	50
11	262	10.03777028172	50.769230769231
11	266	10.069158140219	51.515151515152
11	270	10.116881186485	52.238805970149
11	274	10.15514546573	51.470588235294
11	278	10.303229657935	52.173913043478
11	282	10.638859574589	52.857142857143
11	286	10.822338994327	53.521126760563
11	288	10.840227723109	54.166666666667
11	294	10.95512348474	54.794520547945
11	298	11.241389622961	55.405405405405
11	302	11.33996569258	56
11	306	11.63022376249	56.578947368421
11	310	11.790089114048	57.142857142857
11	314	11.898985878382	56.410256410256
11	318	12.199679831297	56.962025316456
11	321	12.224572708254	56.25
11	324	12.289137667513	55.555555555556
11	330	12.460804914657	54.878048780488
11	332	12.476394624724	55.421686746988
11	336	12.589236756757	55.952380952381
11	342	12.694016383113	56.470588235294
11	346	13.041859831916	56.976744186047
11	350	13.232434610525	57.471264367816
11	354	13.258659265676	56.818181818182
11	358	13.533848666875	57.303370786517
11	362	13.662910244782	57.777777777778
11	366	13.73417678169	58.241758241758
11	370	13.945301562224	58.695652173913
11	374	13.972437301027	59.139784946237
11	379	14.257407787306	59.574468085106
11	384	14.415848490237	60
11	388	14.506508925028	60.416666666667
11	392	14.713446077128	59.79381443299
11	394	14.733034411639	60.204081632653
11	398	14.797744634677	59.59595959596
11	405	15.131540751626	59
11	409	15.405353188162	58.415841584158
11	412	15.543452059839	57.843137254902